/*--------------------------------*- C++ -*----------------------------------*\
| =========                 |                                                 |
| \\      /  F ield         | OpenFOAM: The Open Source CFD Toolbox           |
|  \\    /   O peration     | Version:  5.x                                   |
|   \\  /    A nd           | Web:      www.OpenFOAM.org                      |
|    \\/     M anipulation  |                                                 |
\*---------------------------------------------------------------------------*/
FoamFile
{
    version     2.0;
    format      ascii;
    class       volVectorField;
    location    "0.6";
    object      U;
}
// * * * * * * * * * * * * * * * * * * * * * * * * * * * * * * * * * * * * * //

dimensions      [0 1 -1 0 0 0 0];

internalField   nonuniform List<vector> 
2268
(
(-0.0210497 0.00840339 0)
(-0.055531 0.00780128 0)
(-0.0741822 0.00168952 0)
(-0.0663998 -0.00282252 0)
(-0.0475226 -0.00651342 0)
(-0.0121843 -0.00985187 0)
(0.0338568 -0.0111867 0)
(0.0795723 -0.00977396 0)
(0.115806 -0.00660715 0)
(0.137501 -0.00320328 0)
(0.145503 -9.9359e-05 0)
(0.141459 0.00264475 0)
(0.128538 0.00494702 0)
(0.109158 0.00697267 0)
(0.0838616 0.00934778 0)
(0.0507648 0.0126932 0)
(0.00549733 0.0163112 0)
(-0.054674 0.0121289 0)
(-0.0943067 -0.00120057 0)
(-0.110413 0.0119972 0)
(-0.231311 0.0190328 0)
(-0.24314 -0.016236 0)
(-0.0894792 -0.0517093 0)
(-0.0317321 0.026945 0)
(-0.0572007 0.0188797 0)
(-0.0662602 0.0019686 0)
(-0.0594541 -0.00878687 0)
(-0.044008 -0.0190275 0)
(-0.0115225 -0.0291579 0)
(0.0340963 -0.033783 0)
(0.0806238 -0.0297913 0)
(0.117319 -0.0203047 0)
(0.13899 -0.0101259 0)
(0.146794 -0.00163264 0)
(0.146503 0.004779 0)
(0.14162 0.00954026 0)
(0.133952 0.013392 0)
(0.124377 0.0176588 0)
(0.112603 0.0240664 0)
(0.0934028 0.0335814 0)
(0.0561691 0.0400531 0)
(-0.011254 0.0313119 0)
(-0.0775482 0.0434344 0)
(-0.199526 0.0420919 0)
(-0.164029 -0.0414442 0)
(-0.0550449 -0.129461 0)
(-0.0275299 0.0448298 0)
(-0.0400093 0.0265916 0)
(-0.0502078 0.00175591 0)
(-0.0475973 -0.0123105 0)
(-0.0397957 -0.0283962 0)
(-0.0122988 -0.0468584 0)
(0.0311401 -0.0563382 0)
(0.0773308 -0.0500585 0)
(0.114031 -0.0337923 0)
(0.134993 -0.0165407 0)
(0.141759 -0.00298186 0)
(0.139185 0.00627236 0)
(0.131715 0.0123568 0)
(0.122356 0.0165571 0)
(0.113338 0.0205841 0)
(0.10747 0.0270456 0)
(0.10578 0.0385251 0)
(0.108075 0.0538339 0)
(0.0799645 0.0612781 0)
(0.0446357 0.0796414 0)
(-0.0614024 0.0648395 0)
(-0.0606175 -0.0629565 0)
(0.00206826 -0.167059 0)
(-0.0177408 0.0566204 0)
(-0.0172279 0.0323279 0)
(-0.0243606 0.00352394 0)
(-0.0254068 -0.0127705 0)
(-0.0201643 -0.0355868 0)
(0.00502674 -0.0634912 0)
(0.0416351 -0.078308 0)
(0.0794185 -0.0698948 0)
(0.11015 -0.0468052 0)
(0.128096 -0.0224545 0)
(0.133618 -0.00369448 0)
(0.130603 0.00890757 0)
(0.12307 0.0167436 0)
(0.113876 0.0213629 0)
(0.105083 0.0246431 0)
(0.0987877 0.0291331 0)
(0.0964517 0.0368838 0)
(0.106977 0.0517284 0)
(0.116685 0.0686227 0)
(0.130048 0.099443 0)
(0.0924205 0.0897175 0)
(0.0793475 -0.0456264 0)
(0.0601997 -0.153196 0)
(-0.00479882 0.0603838 0)
(0.0141182 0.0311309 0)
(0.0162042 0.00461802 0)
(0.0208379 -0.0149876 0)
(0.0368489 -0.0440931 0)
(0.0634373 -0.0774911 0)
(0.0854848 -0.0941893 0)
(0.10147 -0.0835062 0)
(0.113987 -0.055762 0)
(0.12138 -0.0264178 0)
(0.123053 -0.00373455 0)
(0.119753 0.0115059 0)
(0.113197 0.0206917 0)
(0.105628 0.0254707 0)
(0.0991496 0.027996 0)
(0.0950649 0.0310816 0)
(0.0934806 0.0357268 0)
(0.099659 0.0449371 0)
(0.116531 0.0586007 0)
(0.155219 0.0893341 0)
(0.179538 0.0925957 0)
(0.163132 -0.0218946 0)
(0.105132 -0.107565 0)
(0.00951101 0.0518968 0)
(0.0531932 0.0245392 0)
(0.075769 -0.00192439 0)
(0.101046 -0.0229441 0)
(0.13767 -0.053524 0)
(0.162684 -0.0846226 0)
(0.161173 -0.0973117 0)
(0.146101 -0.0838415 0)
(0.132006 -0.0551021 0)
(0.121319 -0.0256914 0)
(0.113724 -0.00221755 0)
(0.108038 0.0138094 0)
(0.102283 0.0232103 0)
(0.0966768 0.0274941 0)
(0.0929915 0.0291028 0)
(0.0920356 0.0313381 0)
(0.0934136 0.0347276 0)
(0.0994799 0.0400829 0)
(0.112486 0.0464515 0)
(0.145248 0.0654655 0)
(0.19595 0.0760275 0)
(0.187926 0.00758058 0)
(0.12904 -0.0353817 0)
(0.0241937 0.0293922 0)
(0.092241 0.00575744 0)
(0.155232 -0.0135575 0)
(0.221023 -0.0349472 0)
(0.266165 -0.0617456 0)
(0.268897 -0.0818841 0)
(0.23495 -0.085812 0)
(0.192537 -0.0696179 0)
(0.158045 -0.0425147 0)
(0.131824 -0.0178956 0)
(0.112614 0.00225592 0)
(0.099995 0.0177554 0)
(0.0919921 0.0277856 0)
(0.0873677 0.0316362 0)
(0.0866569 0.0310962 0)
(0.0891882 0.031142 0)
(0.0934325 0.0321667 0)
(0.101501 0.0341832 0)
(0.114825 0.0367271 0)
(0.134746 0.0445909 0)
(0.180474 0.0575979 0)
(0.188876 0.0246118 0)
(0.158981 0.013663 0)
(0.0392731 -0.00873637 0)
(0.141043 -0.0404533 0)
(0.274984 -0.0699262 0)
(0.345655 -0.0761722 0)
(0.351076 -0.0741295 0)
(0.310437 -0.0702326 0)
(0.252142 -0.064693 0)
(0.204173 -0.0487991 0)
(0.169952 -0.0233223 0)
(0.143923 -0.000152828 0)
(0.12356 0.0137735 0)
(0.10591 0.0230341 0)
(0.0913639 0.027532 0)
(0.0816896 0.0271797 0)
(0.0798188 0.0255047 0)
(0.0841914 0.0275518 0)
(0.0909074 0.0303256 0)
(0.10159 0.0310408 0)
(0.118585 0.0317335 0)
(0.137142 0.0334308 0)
(0.163646 0.0465077 0)
(0.183328 0.049174 0)
(0.145421 0.136909 0)
(-0.191528 0.090101 0)
(-0.681887 0.0165668 0)
(-0.363678 -0.13751 0)
(-0.0145484 -0.193747 0)
(0.468827 -0.17059 0)
(1.0567 -0.090082 0)
(0.793671 0.116541 0)
(-0.888154 0.231692 0)
(-1.70142 0.109279 0)
(-1.8333 0.0690611 0)
(-1.80246 0.0650729 0)
(-1.76496 0.0696912 0)
(-1.71987 0.0667526 0)
(-1.67393 0.05473 0)
(-1.62302 0.0367468 0)
(-1.50676 0.015402 0)
(-1.18914 -0.0386263 0)
(-0.632152 -0.118206 0)
(-0.0714114 -0.049169 0)
(-0.221396 0.2319 0)
(-0.434915 0.103609 0)
(-0.0639044 -0.213876 0)
(0.182453 -0.26393 0)
(0.337734 -0.318033 0)
(1.06803 0.0392107 0)
(0.157651 0.654134 0)
(-2.20744 0.626059 0)
(-2.7389 0.175729 0)
(-2.6072 -0.0677165 0)
(-2.49294 -0.108529 0)
(-2.34276 -0.110239 0)
(-2.23681 -0.114887 0)
(-2.14515 -0.125329 0)
(-2.03642 -0.138788 0)
(-1.83047 -0.161876 0)
(-1.42432 -0.265784 0)
(-0.764602 -0.426442 0)
(-0.147766 -0.199537 0)
(-0.172407 0.304037 0)
(-0.10568 0.0520219 0)
(0.113195 -0.317475 0)
(0.370041 -0.373962 0)
(0.468548 -0.472719 0)
(1.13815 0.0301953 0)
(0.19245 1.23803 0)
(-1.93246 1.30462 0)
(-2.19562 0.300161 0)
(-1.56238 -0.0300731 0)
(-2.14415 0.0238084 0)
(-2.28276 0.00635495 0)
(-2.30783 -0.0480824 0)
(-2.46804 -0.0630893 0)
(-2.59313 -0.148215 0)
(-2.38299 -0.310825 0)
(-1.73678 -0.624574 0)
(-0.873617 -0.825002 0)
(-0.213805 -0.4073 0)
(-0.146307 0.345078 0)
(0.0974103 -0.00976574 0)
(0.285838 -0.398993 0)
(0.508252 -0.469471 0)
(0.547847 -0.581623 0)
(1.15069 0.0377733 0)
(0.428463 1.6098 0)
(0.336055 2.35344 0)
(-0.973386 0.551575 0)
(-1.59648 0.0328504 0)
(-1.74069 0.000742801 0)
(-1.54994 -0.0182867 0)
(-1.28351 0.00888282 0)
(-1.35128 0.0637253 0)
(-1.87712 -0.156832 0)
(-2.25884 -0.371246 0)
(-1.79679 -0.888492 0)
(-0.877104 -1.27314 0)
(-0.22436 -0.657926 0)
(-0.117106 0.335799 0)
(0.231113 -0.114007 0)
(0.437562 -0.48251 0)
(0.603203 -0.539458 0)
(0.597055 -0.66508 0)
(1.0797 0.0202915 0)
(0.411106 1.71133 0)
(0.570489 2.72304 0)
(-1.16468 0.839712 0)
(-1.85748 0.184169 0)
(-1.85151 -0.0454539 0)
(-1.58706 -0.182481 0)
(-1.05344 -0.250271 0)
(-0.382446 -0.118925 0)
(0.580271 0.265993 0)
(-1.08564 -0.0652245 0)
(-1.36746 -0.806137 0)
(-0.779354 -1.64191 0)
(-0.174661 -0.920376 0)
(-0.0641241 0.270705 0)
(0.371324 -0.208534 0)
(0.554062 -0.549611 0)
(0.651603 -0.588053 0)
(0.61787 -0.716464 0)
(0.977414 0.0666547 0)
(0.116913 1.88925 0)
(0.233331 2.86041 0)
(-1.48719 1.08901 0)
(-2.14743 0.171935 0)
(-2.37782 -0.187749 0)
(-2.03597 -0.379268 0)
(-1.43557 -0.514881 0)
(-0.763999 -0.49186 0)
(-0.033381 -0.130763 0)
(0.809492 0.276504 0)
(-0.33841 -0.522583 0)
(-0.634963 -1.80522 0)
(-0.108032 -1.1599 0)
(0.0522276 0.216178 0)
(0.517263 -0.310654 0)
(0.621313 -0.592739 0)
(0.657219 -0.616796 0)
(0.624797 -0.738197 0)
(0.859131 0.176335 0)
(-0.0622265 2.07946 0)
(0.117523 3.12618 0)
(-1.37485 1.76892 0)
(-2.16134 0.629553 0)
(-2.79874 -0.00354349 0)
(-2.45976 -0.630391 0)
(-1.8036 -0.878326 0)
(-1.1176 -0.826632 0)
(-0.455435 -0.488924 0)
(0.638058 0.0331672 0)
(0.504066 0.342971 0)
(-0.454568 -1.72112 0)
(-0.0520856 -1.3483 0)
(0.310072 -0.0641604 0)
(0.623323 -0.421562 0)
(0.627654 -0.60115 0)
(0.633845 -0.637667 0)
(0.623927 -0.749654 0)
(0.725563 0.301759 0)
(-0.00689236 2.16764 0)
(0.209414 3.34634 0)
(-1.15193 2.43787 0)
(-2.15988 1.12902 0)
(-3.00593 0.137257 0)
(-2.7278 -0.665176 0)
(-2.07576 -1.15392 0)
(-1.44078 -1.17347 0)
(-0.880055 -0.818921 0)
(-0.196629 -0.176989 0)
(0.388942 -0.141418 0)
(-0.259422 -1.52678 0)
(-0.00949481 -1.45937 0)
(0.0580382 -0.0789932 0)
(0.191118 -0.145581 0)
(0.239609 -0.141372 0)
(0.208397 -0.0950363 0)
(0.171485 -0.0531301 0)
(0.140263 -0.036858 0)
(0.114021 -0.0393522 0)
(0.10147 -0.0357269 0)
(0.102115 -0.0208716 0)
(0.108955 -0.00113482 0)
(0.113038 0.0191563 0)
(0.112017 0.0404938 0)
(0.103173 0.0522147 0)
(0.0940816 0.0506189 0)
(0.0921472 0.0354627 0)
(0.0938734 0.0262774 0)
(0.0948977 0.0182084 0)
(0.101303 0.0109732 0)
(0.117866 0.00953711 0)
(0.144957 0.0113099 0)
(0.17448 0.0187749 0)
(0.236381 0.0116467 0)
(0.303742 0.0992842 0)
(0.000690115 -0.262313 0)
(0.0493335 -0.11381 0)
(-0.761403 0.0307335 0)
(-0.545362 0.0121708 0)
(-0.324737 -0.0141532 0)
(-0.257666 -0.0156196 0)
(-0.264485 -0.0266299 0)
(-0.262076 -0.027324 0)
(-0.206107 -0.022804 0)
(-0.124555 -0.0121141 0)
(-0.0575208 0.00380015 0)
(-0.0131435 0.0224383 0)
(0.0485418 0.0300565 0)
(0.0934689 0.0222577 0)
(0.116789 0.0152423 0)
(0.119076 0.0274812 0)
(0.107872 0.0328153 0)
(0.105567 0.014562 0)
(0.12152 -0.00313255 0)
(0.143212 -0.0135741 0)
(0.16909 -0.0223536 0)
(0.19374 -0.037315 0)
(0.247716 -0.0476388 0)
(-0.077607 -0.156814 0)
(-0.0995005 0.445215 0)
(-0.383188 0.254566 0)
(-0.362456 -0.289407 0)
(-0.562354 -0.339714 0)
(-0.751667 -0.0838188 0)
(-0.886019 -0.0230085 0)
(-0.980342 -0.0686807 0)
(-1.01772 -0.125872 0)
(-1.03683 -0.137058 0)
(-0.972864 -0.113426 0)
(-0.704733 -0.0652308 0)
(-0.417148 -0.0544892 0)
(-0.200625 -0.00458244 0)
(-0.113733 0.00955648 0)
(-0.0173235 0.0386091 0)
(0.0325009 0.0344925 0)
(0.0952059 -0.00189656 0)
(0.151953 -0.0245477 0)
(0.174406 -0.0315948 0)
(0.192902 -0.0431117 0)
(0.227657 -0.0624409 0)
(0.269462 -0.0711624 0)
(-0.154831 0.00516797 0)
(-0.111224 0.332848 0)
(-0.0458855 0.391202 0)
(-0.0444885 0.166786 0)
(-0.21736 0.183804 0)
(-0.374133 0.197149 0)
(-0.389636 0.162807 0)
(-0.388097 0.0849278 0)
(-0.424576 -0.0325561 0)
(-0.508557 -0.162702 0)
(-0.614995 -0.255299 0)
(-0.69725 -0.332095 0)
(-0.777926 -0.475701 0)
(-0.832921 -0.249825 0)
(-0.772185 -0.170131 0)
(-0.629504 -0.13162 0)
(-0.457014 -0.0969105 0)
(-0.300535 -0.108731 0)
(-0.128897 -0.0704047 0)
(-0.0263378 -0.0520795 0)
(0.0377385 -0.0698662 0)
(0.0928963 -0.0949556 0)
(0.118241 -0.110975 0)
(-0.108103 0.0927095 0)
(-0.0561452 0.172552 0)
(0.0307877 0.252528 0)
(0.0691017 0.0398798 0)
(0.030164 0.0238256 0)
(0.0195341 0.14992 0)
(0.0339448 0.106175 0)
(0.0659738 0.027305 0)
(0.0798079 0.010948 0)
(0.0696888 0.0480501 0)
(0.0382989 0.0878311 0)
(-0.0720667 0.0273793 0)
(-0.223494 -0.0957436 0)
(-0.297791 -0.148783 0)
(-0.282761 -0.145682 0)
(-0.319882 -0.246393 0)
(-0.407208 -0.266003 0)
(-0.490947 -0.275637 0)
(-0.565217 -0.275847 0)
(-0.591494 -0.184833 0)
(-0.581892 -0.165548 0)
(-0.627497 -0.173282 0)
(-0.563491 -0.138189 0)
(-0.0474671 0.178503 0)
(-0.00657778 0.158286 0)
(0.0477545 0.191945 0)
(0.101104 0.107087 0)
(0.041034 0.125698 0)
(0.0611526 0.135994 0)
(0.0861545 0.086756 0)
(0.063485 0.0226582 0)
(0.0204717 -0.0408731 0)
(0.00917751 -0.0912982 0)
(0.028668 -0.0920052 0)
(0.067482 -0.0799965 0)
(0.025162 -0.0804158 0)
(-0.0769504 -0.125051 0)
(-0.0872633 -0.125647 0)
(-0.0949686 -0.0621069 0)
(-0.104396 -0.0298545 0)
(-0.1316 -0.044226 0)
(-0.1567 -0.0603991 0)
(-0.178069 -0.0636681 0)
(-0.167482 -0.0953278 0)
(-0.15161 -0.120792 0)
(-0.205327 -0.17608 0)
(-0.0229457 0.177625 0)
(0.00556606 0.102725 0)
(0.036561 0.15426 0)
(0.0635281 0.11353 0)
(0.0333828 0.112379 0)
(0.0461994 0.120554 0)
(0.0622189 0.101414 0)
(0.0563948 0.073914 0)
(0.0382538 0.0476394 0)
(0.000795803 0.0220071 0)
(-0.024601 -0.00189354 0)
(-0.032841 -0.0058064 0)
(-0.0268238 -0.000725396 0)
(-0.0519471 -0.0703799 0)
(-0.0837707 -0.141511 0)
(-0.111479 -0.16282 0)
(-0.106515 -0.155043 0)
(-0.1003 -0.154945 0)
(-0.0869036 -0.147816 0)
(-0.0640964 -0.132621 0)
(-0.0280259 -0.164013 0)
(0.0335449 -0.16881 0)
(0.140808 0.0583918 0)
(-0.0135679 0.182929 0)
(0.00151987 0.0906183 0)
(0.0183874 0.131811 0)
(0.0353989 0.113845 0)
(0.0278407 0.108662 0)
(0.036153 0.106531 0)
(0.0415144 0.0945732 0)
(0.0360931 0.0702049 0)
(0.0199536 0.0315447 0)
(0.00266987 -0.01108 0)
(-0.0124255 -0.0339029 0)
(-0.0307931 -0.0474158 0)
(-0.0236729 -0.0303483 0)
(-0.0170537 -0.0515104 0)
(-0.0338258 -0.0855159 0)
(-0.0594455 -0.088078 0)
(-0.0765158 -0.0934107 0)
(-0.0827081 -0.115254 0)
(-0.0826918 -0.140899 0)
(-0.0578227 -0.150691 0)
(-0.0291147 -0.20259 0)
(-0.00494831 -0.279984 0)
(0.0696685 -0.1815 0)
(-0.0105466 0.190627 0)
(-0.00198326 0.0758474 0)
(0.0102643 0.114265 0)
(0.0235517 0.111784 0)
(0.0228578 0.107444 0)
(0.0291325 0.101428 0)
(0.0344015 0.0935789 0)
(0.0366714 0.0813293 0)
(0.0323385 0.0643985 0)
(0.0170098 0.0439889 0)
(-0.00573729 0.0154563 0)
(-0.0267279 -0.0148283 0)
(-0.0335393 -0.0356942 0)
(-0.0270339 -0.0644045 0)
(-0.0423161 -0.0873416 0)
(-0.0616241 -0.094534 0)
(-0.0747282 -0.0990492 0)
(-0.0824917 -0.116755 0)
(-0.0897798 -0.14824 0)
(-0.0712602 -0.178171 0)
(-0.0395815 -0.213238 0)
(-0.0360384 -0.293295 0)
(-0.00712205 -0.231571 0)
(-0.00752354 0.195319 0)
(-0.00145685 0.0688446 0)
(0.00591292 0.102579 0)
(0.0157474 0.107196 0)
(0.0170442 0.103094 0)
(0.0215383 0.0965879 0)
(0.0256972 0.0896492 0)
(0.0287119 0.0797762 0)
(0.0276777 0.0638398 0)
(0.0218373 0.0412218 0)
(0.0129805 0.0177407 0)
(-0.000558589 -0.00427151 0)
(-0.0151896 -0.0219158 0)
(-0.0288255 -0.0426055 0)
(-0.0490358 -0.0605557 0)
(-0.0722738 -0.0696279 0)
(-0.0893595 -0.0824733 0)
(-0.102558 -0.110474 0)
(-0.114404 -0.152482 0)
(-0.116995 -0.19387 0)
(-0.109166 -0.233347 0)
(-0.134591 -0.290406 0)
(-0.176696 -0.249091 0)
(-0.00420328 0.198405 0)
(-0.000741819 0.0641301 0)
(0.0032873 0.0951213 0)
(0.00985997 0.103211 0)
(0.0114216 0.0995508 0)
(0.0142716 0.0930989 0)
(0.0166109 0.0861611 0)
(0.0188114 0.0776328 0)
(0.0194391 0.0660482 0)
(0.0166117 0.0505245 0)
(0.0091372 0.0313858 0)
(-0.00276335 0.0102948 0)
(-0.0178588 -0.00831297 0)
(-0.0357028 -0.0259599 0)
(-0.0580857 -0.0398435 0)
(-0.0813991 -0.0496941 0)
(-0.100157 -0.0636144 0)
(-0.118869 -0.0911935 0)
(-0.141347 -0.132717 0)
(-0.164307 -0.175623 0)
(-0.188157 -0.211928 0)
(-0.246653 -0.235286 0)
(-0.337079 -0.154844 0)
(-0.00145875 0.199524 0)
(-0.000107742 0.0617293 0)
(0.00168152 0.090583 0)
(0.00553814 0.100562 0)
(0.00645039 0.0975048 0)
(0.00777025 0.0915165 0)
(0.00827226 0.084857 0)
(0.00848099 0.077065 0)
(0.0075868 0.0672439 0)
(0.00423159 0.0545705 0)
(-0.00285811 0.0395758 0)
(-0.0143634 0.0238452 0)
(-0.0298899 0.00934016 0)
(-0.0485121 -0.0041937 0)
(-0.0704029 -0.0166835 0)
(-0.0926135 -0.0282535 0)
(-0.113598 -0.04288 0)
(-0.13748 -0.0669098 0)
(-0.169545 -0.10242 0)
(-0.207238 -0.142725 0)
(-0.249616 -0.172404 0)
(-0.309313 -0.168549 0)
(-0.37873 -0.0933065 0)
(0.00044206 0.199312 0)
(0.000279167 0.0612267 0)
(0.000387406 0.0885265 0)
(0.00211724 0.0992146 0)
(0.0021339 0.0967332 0)
(0.0021016 0.0914557 0)
(0.00106196 0.085537 0)
(-0.000694925 0.0785952 0)
(-0.00362116 0.0702614 0)
(-0.00850824 0.0603931 0)
(-0.0164163 0.0491934 0)
(-0.0279905 0.0375408 0)
(-0.0429279 0.0262939 0)
(-0.0606849 0.0155689 0)
(-0.0810537 0.00487287 0)
(-0.103383 -0.00573044 0)
(-0.127288 -0.0177287 0)
(-0.155749 -0.0343756 0)
(-0.193479 -0.0599769 0)
(-0.242843 -0.0939558 0)
(-0.30416 -0.121831 0)
(-0.370935 -0.116198 0)
(-0.43012 -0.047185 0)
(0.00142429 0.198323 0)
(0.000339388 0.0619981 0)
(-0.000766307 0.0882316 0)
(-0.000697725 0.0991283 0)
(-0.00153472 0.0971368 0)
(-0.00266993 0.0926551 0)
(-0.00479899 0.0877155 0)
(-0.00792733 0.0819351 0)
(-0.0123482 0.0751989 0)
(-0.0185441 0.0675897 0)
(-0.0270847 0.059324 0)
(-0.0384014 0.0508227 0)
(-0.0525751 0.0424714 0)
(-0.0694081 0.0343398 0)
(-0.0891118 0.0264278 0)
(-0.111987 0.0185515 0)
(-0.138457 0.0104091 0)
(-0.169724 0.00114395 0)
(-0.209342 -0.0119926 0)
(-0.265369 -0.0311524 0)
(-0.345218 -0.0463414 0)
(-0.441833 -0.0311943 0)
(-0.530394 0.0391751 0)
(0.00173409 0.197182 0)
(6.99651e-05 0.063526 0)
(-0.00188739 0.0891804 0)
(-0.00299037 0.100115 0)
(-0.00457069 0.0984936 0)
(-0.00658676 0.0948065 0)
(-0.0094739 0.0908455 0)
(-0.0133898 0.0863078 0)
(-0.0185961 0.0811335 0)
(-0.0253931 0.0754591 0)
(-0.0341304 0.0695056 0)
(-0.0451003 0.063472 0)
(-0.0584849 0.0576734 0)
(-0.0744622 0.0523982 0)
(-0.0933133 0.0477948 0)
(-0.115666 0.0438549 0)
(-0.142404 0.0403033 0)
(-0.174277 0.0375382 0)
(-0.213039 0.0370806 0)
(-0.264833 0.0396852 0)
(-0.339776 0.0457678 0)
(-0.437975 0.0620004 0)
(-0.539532 0.109449 0)
(0.00165143 0.196312 0)
(-0.000399987 0.0655003 0)
(-0.00297009 0.0910479 0)
(-0.00486841 0.101871 0)
(-0.00704529 0.100574 0)
(-0.0096875 0.097617 0)
(-0.0131045 0.0945726 0)
(-0.0174616 0.0911917 0)
(-0.022979 0.0874384 0)
(-0.0299065 0.0834412 0)
(-0.0384968 0.079388 0)
(-0.0489655 0.0755008 0)
(-0.0615308 0.0720618 0)
(-0.0764682 0.0693864 0)
(-0.0939908 0.067839 0)
(-0.114453 0.0676705 0)
(-0.138594 0.0689054 0)
(-0.167472 0.0719674 0)
(-0.202266 0.0790448 0)
(-0.244074 0.0943152 0)
(-0.296114 0.121611 0)
(-0.365481 0.162066 0)
(-0.452326 0.215789 0)
(0.00139224 0.195851 0)
(-0.000917251 0.0678874 0)
(-0.00395995 0.0935485 0)
(-0.0063588 0.104184 0)
(-0.00895825 0.103202 0)
(-0.0120348 0.100902 0)
(-0.0157998 0.0986691 0)
(-0.0203905 0.0963112 0)
(-0.025986 0.0937892 0)
(-0.0327988 0.0912399 0)
(-0.0410337 0.0888442 0)
(-0.0508702 0.0868246 0)
(-0.0625308 0.0854501 0)
(-0.0762278 0.0850378 0)
(-0.0921401 0.0860282 0)
(-0.110508 0.0888215 0)
(-0.131715 0.0938497 0)
(-0.156435 0.101864 0)
(-0.185521 0.11444 0)
(-0.219252 0.134874 0)
(-0.256191 0.16837 0)
(-0.295977 0.219102 0)
(-0.342373 0.284783 0)
(0.00110779 0.195781 0)
(-0.00139869 0.07069 0)
(-0.00480633 0.0964716 0)
(-0.00749297 0.106886 0)
(-0.0103802 0.106191 0)
(-0.0137094 0.104484 0)
(-0.0176445 0.102983 0)
(-0.0223043 0.101498 0)
(-0.0278347 0.100023 0)
(-0.0343831 0.0987027 0)
(-0.0421211 0.097713 0)
(-0.051182 0.097268 0)
(-0.0617425 0.0976328 0)
(-0.0739456 0.0991503 0)
(-0.087892 0.102256 0)
(-0.103735 0.107407 0)
(-0.121648 0.115076 0)
(-0.141765 0.126028 0)
(-0.164201 0.141755 0)
(-0.188858 0.164748 0)
(-0.214036 0.198907 0)
(-0.235808 0.248241 0)
(-0.252211 0.312507 0)
(0.00084317 0.196077 0)
(-0.00180266 0.0737389 0)
(-0.00547149 0.0996327 0)
(-0.00829459 0.109793 0)
(-0.0113388 0.109378 0)
(-0.0147644 0.108209 0)
(-0.0187341 0.107354 0)
(-0.0233244 0.10661 0)
(-0.0286448 0.106015 0)
(-0.0348062 0.105708 0)
(-0.0419265 0.10586 0)
(-0.0500925 0.106686 0)
(-0.0594243 0.108427 0)
(-0.0699934 0.111419 0)
(-0.0818157 0.116075 0)
(-0.0949083 0.122842 0)
(-0.109268 0.132201 0)
(-0.124805 0.144852 0)
(-0.141234 0.161939 0)
(-0.157938 0.185177 0)
(-0.173321 0.217013 0)
(-0.183732 0.260179 0)
(-0.185092 0.315079 0)
(0.000632893 0.196677 0)
(-0.00209638 0.0769815 0)
(-0.0059435 0.102915 0)
(-0.00878403 0.112794 0)
(-0.0118782 0.112635 0)
(-0.0152893 0.111931 0)
(-0.019176 0.111626 0)
(-0.0235732 0.111515 0)
(-0.0285662 0.111639 0)
(-0.0342367 0.112142 0)
(-0.0406485 0.11319 0)
(-0.0478503 0.114982 0)
(-0.0559077 0.117742 0)
(-0.0648156 0.121775 0)
(-0.0745393 0.12745 0)
(-0.0850125 0.13517 0)
(-0.0960627 0.145349 0)
(-0.107438 0.158532 0)
(-0.118688 0.175561 0)
(-0.129024 0.197585 0)
(-0.136998 0.225942 0)
(-0.139787 0.262079 0)
(-0.133882 0.306193 0)
(0.000510912 0.197488 0)
(-0.00227171 0.0803648 0)
(-0.00623886 0.106232 0)
(-0.00899794 0.115803 0)
(-0.0120606 0.115862 0)
(-0.0153668 0.115554 0)
(-0.019073 0.1157 0)
(-0.0231938 0.1161 0)
(-0.0277789 0.116799 0)
(-0.0328818 0.117926 0)
(-0.038537 0.119645 0)
(-0.0447559 0.12213 0)
(-0.0515499 0.125589 0)
(-0.0588679 0.130283 0)
(-0.0666219 0.136517 0)
(-0.0746755 0.144639 0)
(-0.0827782 0.154982 0)
(-0.0905952 0.16791 0)
(-0.0976016 0.183985 0)
(-0.102992 0.203954 0)
(-0.105558 0.228517 0)
(-0.103234 0.258271 0)
(-0.0934684 0.293038 0)
(0.000480074 0.198413 0)
(-0.0023348 0.0838231 0)
(-0.00635524 0.10951 0)
(-0.00896805 0.118743 0)
(-0.0119355 0.118983 0)
(-0.0150739 0.119008 0)
(-0.0185397 0.11951 0)
(-0.0223176 0.120305 0)
(-0.0264455 0.121439 0)
(-0.0309485 0.123024 0)
(-0.0358313 0.125212 0)
(-0.0410831 0.128156 0)
(-0.0466725 0.132038 0)
(-0.0525159 0.13707 0)
(-0.0584883 0.14349 0)
(-0.0644098 0.15158 0)
(-0.0699904 0.16159 0)
(-0.0748703 0.173737 0)
(-0.0785356 0.188355 0)
(-0.0802318 0.205892 0)
(-0.0789661 0.226668 0)
(-0.0732535 0.250831 0)
(-0.0613342 0.278039 0)
(0.000521921 0.199356 0)
(-0.00230349 0.0873016 0)
(-0.00629898 0.112688 0)
(-0.0087204 0.121554 0)
(-0.0115489 0.121938 0)
(-0.0144732 0.122228 0)
(-0.0176564 0.123004 0)
(-0.0210617 0.124093 0)
(-0.0247117 0.125532 0)
(-0.0286089 0.12743 0)
(-0.0327391 0.129913 0)
(-0.0370699 0.133116 0)
(-0.0415441 0.137191 0)
(-0.0460618 0.142299 0)
(-0.0504728 0.148619 0)
(-0.0545745 0.156362 0)
(-0.0580746 0.165708 0)
(-0.060615 0.176755 0)
(-0.0617313 0.18966 0)
(-0.06077 0.204662 0)
(-0.0569233 0.221861 0)
(-0.0491267 0.241174 0)
(-0.0361644 0.262254 0)
(0.000605817 0.200238 0)
(-0.00218526 0.0907353 0)
(-0.00607248 0.115719 0)
(-0.0082762 0.124199 0)
(-0.0109353 0.124691 0)
(-0.0136161 0.125183 0)
(-0.0164948 0.126155 0)
(-0.0195174 0.127443 0)
(-0.0226922 0.129079 0)
(-0.0260049 0.131162 0)
(-0.0294283 0.133795 0)
(-0.0329115 0.137092 0)
(-0.0363834 0.141175 0)
(-0.0397399 0.146161 0)
(-0.0428188 0.152177 0)
(-0.0454125 0.159365 0)
(-0.0472483 0.167843 0)
(-0.0479946 0.177633 0)
(-0.0472455 0.188744 0)
(-0.0444589 0.201272 0)
(-0.038982 0.215216 0)
(-0.0300607 0.230385 0)
(-0.0168686 0.246477 0)
(0.000698289 0.200998 0)
(-0.00197858 0.094051 0)
(-0.00568126 0.118554 0)
(-0.00765085 0.126656 0)
(-0.0101206 0.127222 0)
(-0.0125406 0.127856 0)
(-0.0151087 0.128955 0)
(-0.0177527 0.13036 0)
(-0.0204728 0.132104 0)
(-0.0232429 0.134265 0)
(-0.0260246 0.136929 0)
(-0.0287539 0.140191 0)
(-0.0313544 0.144143 0)
(-0.033721 0.148862 0)
(-0.0356959 0.154436 0)
(-0.0370808 0.160948 0)
(-0.0376256 0.168455 0)
(-0.0370445 0.176928 0)
(-0.0349958 0.186285 0)
(-0.0310361 0.196506 0)
(-0.0246411 0.20756 0)
(-0.0152847 0.219238 0)
(-0.00243832 0.231256 0)
(0.000777618 0.201587 0)
(-0.00167451 0.0971712 0)
(-0.00514424 0.121153 0)
(-0.00685959 0.128906 0)
(-0.0091311 0.129514 0)
(-0.0112794 0.130245 0)
(-0.0135371 0.131413 0)
(-0.0158167 0.132872 0)
(-0.0181131 0.134645 0)
(-0.0203953 0.136798 0)
(-0.022611 0.139402 0)
(-0.0246903 0.142532 0)
(-0.0265611 0.146251 0)
(-0.0281134 0.150606 0)
(-0.0291986 0.155655 0)
(-0.0296459 0.161426 0)
(-0.0292382 0.167936 0)
(-0.0277205 0.175119 0)
(-0.0248208 0.182831 0)
(-0.0201994 0.190971 0)
(-0.0134269 0.199496 0)
(-0.00413563 0.208253 0)
(0.00799995 0.216992 0)
(0.000858288 0.201966 0)
(-0.00126458 0.100039 0)
(-0.00450243 0.123486 0)
(-0.00593229 0.130938 0)
(-0.00799305 0.131553 0)
(-0.00986055 0.132342 0)
(-0.0118138 0.133536 0)
(-0.0137469 0.135003 0)
(-0.0156564 0.136748 0)
(-0.0175 0.138833 0)
(-0.0192253 0.141313 0)
(-0.0207598 0.144239 0)
(-0.0220363 0.147651 0)
(-0.0229421 0.151588 0)
(-0.0233441 0.15607 0)
(-0.0230976 0.161085 0)
(-0.0220164 0.166621 0)
(-0.019896 0.172594 0)
(-0.0165172 0.178814 0)
(-0.0116307 0.185123 0)
(-0.00490755 0.191468 0)
(0.00396512 0.197797 0)
(0.0151417 0.203949 0)
(0.000992226 0.202062 0)
(-0.000744097 0.102635 0)
(-0.00381532 0.125522 0)
(-0.00490906 0.132731 0)
(-0.00676173 0.133326 0)
(-0.00832863 0.134141 0)
(-0.00997733 0.135331 0)
(-0.0115752 0.136768 0)
(-0.0131215 0.138453 0)
(-0.0145676 0.140429 0)
(-0.0158658 0.142741 0)
(-0.016949 0.145424 0)
(-0.0177435 0.148498 0)
(-0.0181418 0.151993 0)
(-0.0180394 0.155891 0)
(-0.0173131 0.160175 0)
(-0.0158018 0.164799 0)
(-0.0133545 0.16967 0)
(-0.00978983 0.174593 0)
(-0.00494229 0.17934 0)
(0.00140059 0.183828 0)
(0.00956011 0.188173 0)
(0.0195991 0.192281 0)
(0.00127291 0.201733 0)
(-9.63286e-05 0.105052 0)
(-0.00315134 0.127256 0)
(-0.00382615 0.134275 0)
(-0.00549095 0.134819 0)
(-0.0067417 0.135643 0)
(-0.00808735 0.136805 0)
(-0.00935027 0.138189 0)
(-0.0105451 0.139788 0)
(-0.0116188 0.141632 0)
(-0.0125237 0.143754 0)
(-0.0132077 0.146174 0)
(-0.0135962 0.148904 0)
(-0.0136023 0.151953 0)
(-0.0131298 0.155293 0)
(-0.0120713 0.158894 0)
(-0.0103101 0.162695 0)
(-0.00772575 0.166596 0)
(-0.00418852 0.170425 0)
(0.000379496 0.173895 0)
(0.00613129 0.176864 0)
(0.0133463 0.179589 0)
(0.0220791 0.182119 0)
(0.00177749 0.200815 0)
(0.000648877 0.107413 0)
(-0.00256944 0.128722 0)
(-0.00272842 0.135565 0)
(-0.00425651 0.136022 0)
(-0.00517065 0.136848 0)
(-0.00622003 0.137966 0)
(-0.00715428 0.13927 0)
(-0.00800434 0.140762 0)
(-0.00871289 0.142462 0)
(-0.00924391 0.144383 0)
(-0.00955326 0.146533 0)
(-0.00957418 0.148926 0)
(-0.00922913 0.151552 0)
(-0.00844779 0.154385 0)
(-0.00714361 0.157376 0)
(-0.00522537 0.16046 0)
(-0.00260429 0.163534 0)
(0.000799014 0.166455 0)
(0.0050004 0.168941 0)
(0.0100867 0.170786 0)
(0.016275 0.172207 0)
(0.0236365 0.173527 0)
(0.00249534 0.199065 0)
(0.00145091 0.110008 0)
(-0.00206044 0.130008 0)
(-0.00167283 0.136618 0)
(-0.00313974 0.136948 0)
(-0.00370365 0.137768 0)
(-0.00449994 0.138809 0)
(-0.00512876 0.140014 0)
(-0.00564254 0.141379 0)
(-0.00600257 0.142916 0)
(-0.00618077 0.14463 0)
(-0.00612554 0.146526 0)
(-0.00578066 0.148609 0)
(-0.0050957 0.150854 0)
(-0.00401197 0.15322 0)
(-0.00246281 0.15567 0)
(-0.00039327 0.158134 0)
(0.00226376 0.160531 0)
(0.00558031 0.16274 0)
(0.00953026 0.164496 0)
(0.0140664 0.165561 0)
(0.0193457 0.166033 0)
(0.0255287 0.166427 0)
(0.00330328 0.196464 0)
(0.0022279 0.112693 0)
(-0.0015859 0.131231 0)
(-0.00074816 0.137428 0)
(-0.0022502 0.137623 0)
(-0.00247672 0.138435 0)
(-0.00308357 0.139366 0)
(-0.00344723 0.140451 0)
(-0.0036823 0.141664 0)
(-0.00374002 0.14302 0)
(-0.00359377 0.144518 0)
(-0.00320062 0.146162 0)
(-0.00252088 0.147937 0)
(-0.00152323 0.149819 0)
(-0.000145789 0.151765 0)
(0.00166754 0.153741 0)
(0.0039561 0.155678 0)
(0.00676972 0.157517 0)
(0.0101287 0.159144 0)
(0.0140183 0.160339 0)
(0.0183424 0.160862 0)
(0.0231475 0.160739 0)
(0.0286489 0.160466 0)
(0.00411379 0.193072 0)
(0.00297268 0.115541 0)
(-0.00119347 0.132445 0)
(-5.97543e-05 0.138025 0)
(-0.00165179 0.138136 0)
(-0.00159658 0.138907 0)
(-0.0021268 0.139712 0)
(-0.0023124 0.140655 0)
(-0.00235296 0.141697 0)
(-0.00219752 0.142844 0)
(-0.00182554 0.144102 0)
(-0.0011956 0.145467 0)
(-0.000268577 0.14692 0)
(0.000985301 0.14844 0)
(0.00262161 0.149995 0)
(0.00468863 0.151535 0)
(0.00721801 0.153001 0)
(0.0102361 0.15433 0)
(0.0137585 0.155416 0)
(0.0178185 0.156135 0)
(0.0223231 0.156262 0)
(0.0271971 0.155733 0)
(0.0326942 0.154956 0)
(0.00494588 0.188882 0)
(0.00365503 0.118708 0)
(-0.00092495 0.133716 0)
(0.00039894 0.138514 0)
(-0.00138486 0.13857 0)
(-0.00115783 0.139269 0)
(-0.00170931 0.139927 0)
(-0.00181817 0.140712 0)
(-0.00180349 0.141563 0)
(-0.00157882 0.142483 0)
(-0.00111908 0.143488 0)
(-0.000392437 0.144564 0)
(0.000640849 0.145693 0)
(0.0020155 0.146846 0)
(0.00377686 0.147996 0)
(0.00597358 0.149087 0)
(0.00864237 0.15007 0)
(0.0118069 0.150876 0)
(0.0155108 0.151433 0)
(0.0198203 0.151649 0)
(0.0246433 0.151333 0)
(0.0298797 0.150392 0)
(0.0358885 0.149131 0)
(0.00574291 0.183989 0)
(0.004189 0.12226 0)
(-0.00076229 0.13522 0)
(0.000627521 0.139063 0)
(-0.00142068 0.139091 0)
(-0.00111925 0.139698 0)
(-0.00179737 0.1402 0)
(-0.00193434 0.140808 0)
(-0.00198384 0.141457 0)
(-0.00181739 0.142161 0)
(-0.00141823 0.142917 0)
(-0.000759655 0.143709 0)
(0.000199973 0.144509 0)
(0.00149981 0.145287 0)
(0.00318533 0.146011 0)
(0.00530551 0.146635 0)
(0.00790428 0.147109 0)
(0.0110263 0.147364 0)
(0.0147245 0.147339 0)
(0.0190599 0.146941 0)
(0.0240119 0.14602 0)
(0.0295083 0.144539 0)
(0.0359902 0.142662 0)
(0.00638287 0.178595 0)
(0.00452552 0.12612 0)
(-0.000684247 0.136964 0)
(0.000685156 0.139771 0)
(-0.00163661 0.139799 0)
(-0.00134674 0.140284 0)
(-0.00221243 0.140638 0)
(-0.00244902 0.141078 0)
(-0.00263461 0.141542 0)
(-0.00262173 0.14204 0)
(-0.00239829 0.142556 0)
(-0.00193764 0.143072 0)
(-0.00120065 0.143548 0)
(-0.00014326 0.143974 0)
(0.00127497 0.144284 0)
(0.00310664 0.144439 0)
(0.00539813 0.144414 0)
(0.00819913 0.144103 0)
(0.0115727 0.14345 0)
(0.0155719 0.142377 0)
(0.0202543 0.140765 0)
(0.0255415 0.138553 0)
(0.0319033 0.135905 0)
(0.00681497 0.172815 0)
(0.00465857 0.130048 0)
(-0.000663401 0.138747 0)
(0.000642243 0.140507 0)
(-0.00189749 0.140586 0)
(-0.00165788 0.140876 0)
(-0.00270988 0.141115 0)
(-0.00306415 0.141406 0)
(-0.00342118 0.141699 0)
(-0.00360086 0.14202 0)
(-0.00359899 0.142318 0)
(-0.0033994 0.142599 0)
(-0.00294042 0.142803 0)
(-0.00220767 0.142889 0)
(-0.00118189 0.142842 0)
(0.00023907 0.142582 0)
(0.00205986 0.14208 0)
(0.00432347 0.141242 0)
(0.0071261 0.140004 0)
(0.0104873 0.138272 0)
(0.0144638 0.135991 0)
(0.0190428 0.133019 0)
(0.0246435 0.129529 0)
(0.00689984 0.166756 0)
(0.00450002 0.13388 0)
(-0.000636438 0.140469 0)
(0.00057347 0.141189 0)
(-0.00208098 0.141328 0)
(-0.00191951 0.141416 0)
(-0.00306281 0.141543 0)
(-0.00354237 0.141702 0)
(-0.00402916 0.141858 0)
(-0.00437292 0.14202 0)
(-0.00456813 0.142148 0)
(-0.00458979 0.142216 0)
(-0.00443838 0.142193 0)
(-0.0040311 0.141999 0)
(-0.00337207 0.141636 0)
(-0.00241291 0.14104 0)
(-0.00111283 0.140106 0)
(0.000563964 0.138817 0)
(0.00267359 0.13708 0)
(0.00527632 0.134794 0)
(0.00840685 0.131875 0)
(0.0119724 0.128251 0)
(0.0164017 0.124021 0)
(0.00642705 0.161066 0)
(0.00397485 0.137727 0)
(-0.000575327 0.142358 0)