/*--------------------------------*- C++ -*----------------------------------*\
| =========                 |                                                 |
| \\      /  F ield         | OpenFOAM: The Open Source CFD Toolbox           |
|  \\    /   O peration     | Version:  5.x                                   |
|   \\  /    A nd           | Web:      www.OpenFOAM.org                      |
|    \\/     M anipulation  |                                                 |
\*---------------------------------------------------------------------------*/
FoamFile
{
    version     2.0;
    format      ascii;
    class       volScalarField;
    location    "0.3";
    object      alpha.water;
}
// * * * * * * * * * * * * * * * * * * * * * * * * * * * * * * * * * * * * * //

dimensions      [0 0 0 0 0 0 0];

internalField   nonuniform List<scalar> 
8000
(
1
1
1
1
1
1
1
1
1
1
1
1
1
1
1
1
1
1
1
1
1
1
1
1
1
1
1
1
1
1
1
1
1
1
1
1
1
1
1
1
1
1
1
1
1
1
1
1
1
1
1
1
1
1
1
1
1
1
1
1
1
1
1
1
1
1
1
1
1
1
1
1
1
1
1
1
1
1
1
1
1
1
1
1
1
1
1
1
1
1
1
1
1
1
1
1
1
1
1
1
1
1
1
1
1
1
1
1
1
1
1
1
1
1
1
1
1
1
1
1
1
1
1
1
1
1
1
1
1
1
1
1
1
1
1
1
1
1
1
1
1
1
1
1
1
1
1
1
1
1
1
1
1
1
1
1
1
1
1
1
1
1
1
1
1
1
1
1
1
1
1
1
1
1
1
1
1
1
1
1
1
1
1
1
1
1
1
1
1
1
1
1
1
1
1
1
1
1
1
1
1
1
1
1
1
1
1
1
1
1
1
1
1
1
1
1
1
1
1
1
1
1
1
1
1
1
1
1
1
1
1
1
1
1
1
1
1
1
1
1
1
1
1
1
1
1
1
1
1
1
1
1
1
1
1
1
1
1
1
1
1
1
1
1
1
1
1
1
1
1
1
1
1
1
1
1
1
1
1
1
1
1
1
1
1
1
1
1
1
1
1
1
1
1
1
1
1
1
1
1
1
1
1
1
1
1
1
1
1
1
1
1
1
1
1
1
1
1
1
1
1
1
1
1
1
1
1
1
1
1
1
1
1
1
1
1
1
1
1
1
1
1
1
1
1
1
1
1
1
1
1
1
1
1
1
1
1
1
1
1
1
1
1
1
1
1
1
1
1
1
1
1
1
1
1
1
1
1
1
1
1
1
1
1
1
1
1
1
1
1
1
1
1
1
1
1
1
1
1
1
1
1
1
1
1
1
1
1
1
1
1
1
1
1
1
1
1
1
1
1
1
1
1
1
1
1
1
1
1
1
1
1
1
1
1
1
1
1
1
1
1
1
1
1
1
1
1
1
1
1
1
1
1
1
1
1
1
1
1
1
1
1
1
1
1
1
1
1
1
1
1
1
1
1
1
1
1
1
1
1
1
1
1
1
1
1
1
1
1
1
1
1
1
1
1
1
1
1
1
1
1
1
1
1
1
1
1
1
1
1
1
1
1
1
1
1
1
1
1
1
1
1
1
1
1
1
1
1
1
1
1
1
1
1
1
1
1
1
1
1
1
1
1
1
1
1
1
1
1
1
1
1
1
1
1
1
1
1
1
1
1
1
1
1
1
1
1
1
1
1
1
1
1
1
1
1
1
1
1
1
1
1
1
1
1
1
1
1
1
1
1
1
1
1
1
1
1
1
1
1
1
1
1
1
1
1
1
1
1
1
1
1
1
1
1
1
1
1
1
1
1
1
1
1
1
1
1
1
1
1
1
1
1
1
1
1
1
1
1
1
1
1
1
1
1
1
1
1
1
1
1
1
1
1
1
1
1
1
1
1
1
1
1
1
1
1
1
1
1
1
1
1
1
1
1
1
1
1
1
1
1
1
1
1
1
1
1
1
1
1
1
1
1
1
1
1
1
1
1
1
1
1
1
1
1
1
1
1
1
1
1
1
1
1
1
1
1
1
1
1
1
1
1
1
1
1
1
1
1
1
1
1
1
1
1
1
1
1
1
1
1
1
1
1
1
1
1
1
1
1
1
1
1
1
1
1
1
1
1
1
1
1
1
1
1
1
1
1
1
1
1
1
1
1
1
1
1
1
1
1
1
1
1
1
1
1
1
1
1
1
1
1
1
1
1
1
1
1
1
1
1
1
1
1
1
1
1
1
1
1
1
1
1
1
1
1
1
1
1
1
1
1
1
1
1
1
1
1
1
1
1
1
1
1
1
1
1
1
1
1
1
1
1
1
1
1
1
1
1
1
1
1
1
1
1
1
1
1
1
1
1
1
1
1
1
1
1
1
1
1
1
1
1
1
1
1
1
1
1
1
1
1
1
1
1
1
1
1
1
1
1
1
1
1
1
1
1
1
1
1
1
1
1
1
1
1
1
1
1
1
1
1
1
1
1
1
1
1
1
1
1
1
1
1
1
1
1
1
1
1
1
1
1
1
1
1
1
1
1
1
1
1
1
1
1
1
1
1
1
1
1
1
1
1
1
1
1
1
1
1
1
1
1
1
1
1
1
1
1
1
1
1
1
1
1
1
1
1
1
1
1
1
1
1
1
1
1
1
1
1
1
1
1
1
1
1
1
1
1
1
1
1
1
1
1
1
1
1
1
1
1
1
1
1
1
1
1
1
1
1
1
1
1
1
1
1
1
1
1
1
1
1
1
1
1
1
1
1
1
1
1
1
1
1
1
1
1
1
1
1
1
1
1
1
1
1
1
1
1
1
1
1
1
1
1
1
1
1
1
1
1
1
1
1
1
1
1
1
1
1
1
1
1
1
1
1
1
1
1
1
1
1
1
1
1
1
1
1
1
1
1
1
1
1
1
1
1
1
1
1
1
1
1
1
1
1
1
1
1
1
1
1
1
1
1
1
1
1
1
1
1
1
1
1
1
1
1
1
1
1
1
1
1
1
1
1
1
1
1
1
1
1
1
1
1
1
1
1
1
1
1
1
1
1
1
1
1
1
1
1
1
1
1
1
1
1
1
1
1
1
1
1
1
1
1
1
1
1
1
1
1
1
1
1
1
1
1
1
1
1
1
1
1
1
1
1
1
1
1
1
1
1
1
1
1
1
1
1
1
1
1
1
1
1
1
1
1
1
1
1
1
1
1
1
1
1
1
1
1
1
1
1
1
1
1
1
1
1
1
1
1
1
1
1
1
1
1
1
1
1
1
1
1
1
1
1
1
1
1
1
1
1
1
1
1
1
1
1
1
1
1
1
1
1
1
1
1
1
1
1
1
1
1
1
1
1
1
1
1
1
1
1
1
1
1
1
1
1
1
1
1
1
1
1
1
1
1
1
1
1
1
1
1
1
1
1
1
1
1
1
1
1
1
1
1
1
1
1
1
1
1
1
1
1
1
1
1
1
1
1
1
1
1
1
1
1
1
1
1
1
1
1
1
1
1
1
1
1
1
1
1
1
1
1
1
1
1
1
1
1
1
1
1
1
1
1
1
1
1
1
1
1
1
1
1
1
1
1
1
1
1
1
1
1
1
1
1
1
1
1
1
1
1
1
1
1
1
1
1
1
1
1
1
1
1
1
1
1
1
1
1
1
1
1
1
1
1
1
1
1
1
1
1
1
1
1
1
1
1
1
1
1
1
1
1
1
1
1
1
1
1
1
1
1
1
1
1
1
1
1
1
1
1
1
1
1
1
1
1
1
1
1
1
1
1
1
1
1
1
1
1
1
1
1
1
1
1
1
1
1
1
1
1
1
1
1
1
1
1
1
1
1
1
1
1
1
1
1
1
1
1
1
1
1
1
1
1
1
1
1
1
1
1
1
1
1
1
1
1
1
1
1
1
1
1
1
1
1
1
1
1
1
1
1
1
1
1
1
1
1
1
1
1
1
1
1
1
1
1
1
1
1
1
1
1
1
1
1
1
1
1
1
1
1
1
1
1
1
1
1
1
1
1
1
1
1
1
1
1
1
1
1
1
1
1
1
1
1
1
1
1
1
1
1
1
1
1
1
1
1
1
1
1
1
1
1
1
1
1
1
1
1
1
1
1
1
1
1
1
1
1
1
1
1
1
1
1
1
1
1
1
1
1
1
1
1
1
1
1
1
1
1
1
1
1
1
1
1
1
1
1
1
1
1
1
1
1
1
1
1
1
1
1
1
1
1
1
1
1
1
1
1
1
1
1
1
1
1
1
1
1
1
1
1
1
1
1
1
1
1
1
1
1
1
1
1
1
1
1
1
1
1
1
1
1
1
1
1
1
1
1
1
1
1
1
1
1
1
1
1
1
1
1
1
1
1
1
1
1
1
1
1
1
1
1
1
1
1
1
1
1
1
1
1
1
1
1
1
1
1
1
1
1
1
1
1
1
1
1
1
1
1
1
1
1
1
1
1
1
1
1
1
1
1
1
1
1
1
1
1
1
1
1
1
1
1
1
1
1
1
1
1
1
1
1
1
1
1
1
1
1
1
1
1
1
1
1
1
1
1
1
1
1
1
1
1
1
1
1
1
1
1
1
1
1
1
1
1
1
1
1
1
1
1
1
1
1
1
1
1
1
1
1
1
1
1
1
1
1
1
1
1
1
1
1
1
1
1
1
1
1
1
1
1
1
1
1
1
1
1
1
1
1
1
1
1
1
1
1
1
1
1
1
1
1
1
1
1
1
1
1
1
1
1
1
1
1
1
1
1
1
1
1
1
1
1
1
1
1
1
1
1
1
1
1
1
1
1
1
1
1
1
1
1
1
1
1
1
1
1
1
1
1
1
1
1
1
1
1
1
1
1
1
1
1
1
1
1
1
1
1
1
1
1
1
1
1
1
1
1
1
1
1
1
1
1
1
1
1
1
1
1
1
1
1
1
1
1
1
1
1
1
1
1
1
1
1
1
1
1
1
1
1
1
1
1
1
1
1
1
1
1
1
1
1
1
1
1
1
1
1
1
1
1
1
1
1
1
1
1
1
1
1
1
1
1
1
1
1
1
1
1
1
1
1
1
1
1
1
1
1
1
1
1
1
1
1
1
1
1
1
1
1
1
1
1
1
1
1
1
1
1
1
1
1
1
1
1
1
1
1
1
1
1
1
1
1
1
1
1
1
1
1
1
1
1
1
1
1
1
1
1
1
1
1
1
1
1
1
1
1
1
1
1
1
1
1
1
1
1
1
1
1
1
1
1
1
1
1
1
1
1
1
1
1
1
1
1
1
1
1
1
1
1
1
1
1
1
1
1
1
1
1
1
1
1
1
1
1
1
1
1
1
1
1
1
1
1
1
1
1
1
1
1
1
1
1
1
1
1
1
1
1
1
1
1
1
1
1
1
1
1
1
1
1
1
1
1
1
1
1
1
1
1
1
1
1
1
1
1
1
1
1
1
1
1
1
1
1
1
1
1
1
1
1
1
1
1
1
1
1
1
1
1
1
1
1
1
1
1
1
1
1
1
1
1
1
1
1
1
1
1
1
1
1
1
1
1
1
1
1
1
1
1
1
1
1
1
1
1
1
1
1
1
1
1
1
1
1
1
1
1
1
1
1
1
1
1
1
1
1
1
1
1
1
1
1
1
1
1
1
1
1
1
1
1
1
1
1
1
1
1
1
1
1
1
1
1
1
1
1
1
1
1
1
1
1
1
1
1
1
1
1
1
1
1
1
1
1
1
1
1
1
1
1
1
1
1
1
1
1
1
1
1
1
1
1
1
1
1
1
1
1
1
1
1
1
1
1
1
1
1
1
1
1
1
1
1
1
1
1
1
1
1
1
1
1
1
1
1
1
1
1
1
1
1
1
1
1
1
1
1
1
1
1
1
1
1
1
1
1
1
1
1
1
1
1
1
1
1
1
1
1
1
1
1
1
1
1
1
1
1
1
1
1
1
1
1
1
1
1
1
1
1
1
1
1
1
1
1
1
1
1
1
1
1
1
1
1
1
1
1
1
1
1
1
1
1
1
1
1
1
1
1
1
1
1
1
1
1
1
1
1
1
1
1
1
1
1
1
1
1
1
1
1
1
1
1
1
1
1
1
1
1
1
1
1
1
1
1
1
1
1
1
1
1
1
1
1
1
1
1
1
1
1
1
1
1
1
1
1
1
1
1
1
1
1
1
1
1
1
1
1
1
1
1
1
1
1
1
1
1
1
1
1
1
1
1
1
1
1
1
1
1
1
1
1
1
1
1
1
1
1
1
1
1
1
1
1
1
1
1
1
1
1
1
1
1
1
1
1
1
1
1
1
1
1
1
1
1
1
1
1
1
1
1
1
1
1
1
1
1
1
1
1
1
1
1
1
1
1
1
1
1
1
1
1
1
1
1
1
1
1
1
1
1
1
1
1
1
1
1
1
1
1
1
1
1
1
1
1
1
1
1
1
1
1
1
1
1
1
1
1
1
1
1
1
1
1
1
1
1
1
1
1
1
1
1
1
1
1
1
1
1
1
1
1
1
1
1
1
1
1
1
1
1
1
1
1
1
1
1
1
1
1
1
1
1
1
1
1
1
1
1
1
1
1
1
1
1
1
1
1
1
1
1
1
1
1
1
1
1
1
1
1
1
1
1
1
1
1
1
1
1
1
1
1
1
1
1
1
1
1
1
1
1
1
1
1
1
1
1
1
1
1
1
1
1
1
1
1
1
1
1
1
1
1
1
1
1
1
1
1
1
1
1
1
1
1
1
1
1
1
1
1
1
1
1
1
1
1
1
1
1
1
1
1
1
1
1
1
1
1
1
1
1
1
1
1
1
1
1
1
1
1
1
1
1
1
1
1
1
1
1
1
1
1
1
1
1
1
1
1
1
1
1
1
1
1
1
1
1
1
1
1
1
1
1
1
1
1
1
1
1
1
1
1
1
1
1
1
1
1
1
1
1
1
1
1
1
1
1
1
1
1
1
1
1
1
1
1
1
1
1
1
1
1
1
1
1
1
1
1
1
1
1
1
1
1
1
1
1
1
1
1
1
1
1
1
1
1
1
1
1
1
1
1
1
1
1
1
1
1
1
1
1
1
1
1
1
1
1
1
1
1
1
1
1
1
1
1
1
1
1
1
1
1
1
1
1
1
1
1
1
1
1
1
1
1
1
1
1
1
1
1
1
1
1
1
1
1
1
1
1
1
1
1
1
1
1
1
1
1
1
1
1
1
1
1
1
1
1
1
1
1
1
1
1
1
1
1
1
1
1
1
1
1
1
1
1
1
1
1
1
1
1
1
1
1
1
1
1
1
1
1
1
1
1
1
1
1
1
1
1
1
1
1
1
1
1
1
1
1
1
1
1
1
1
1
1
1
1
1
1
1
1
1
1
1
1
1
1
1
1
1
1
1
1
1
1
1
1
1
1
1
1
1
1
1
1
1
1
1
1
1
1
1
1
1
1
1
1
1
1
1
1
1
1
1
1
1
1
1
1
1
1
1
1
1
1
1
1
1
1
1
1
1
1
1
1
1
1
1
1
1
1
1
1
1
1
1
1
1
1
1
1
1
1
1
1
1
1
1
1
1
1
1
1
1
1
1
1
1
1
1
1
1
1
1
1
1
1
1
1
1
1
1
1
1
1
1
1
1
1
1
1
1
1
1
1
1
1
1
1
1
1
1
1
1
1
1
1
1
1
1
1
1
1
1
1
0.999968
1
1
1
1
1
1
1
1
1
1
1
1
1
1
1
1
1
1
0.999968
0.999975
0.999999
1
1
1
1
1
1
1
1
1
1
1
1
1
1
1
1
0.999999
0.999974
0.999998
0.999974
1
1
1
1
1
1
1
1
1
1
1
1
1
1
1
1
0.999972
0.999997
1
0.999973
1
1
1
1
1
1
1
1
1
1
1
1
1
1
1
1
0.99997
1
1
0.999976
0.999983
1
1
1
1
1
1
1
1
1
1
1
1
1
1
0.99998
0.999974
1
1
0.999996
0.999973
1
1
1
1
1
1
1
1
1
1
1
1
1
1
0.999972
0.999997
0.999978
0.999881
0.999998
0.999973
0.999985
1
1
1
1
1
1
1
1
1
1
1
1
0.999989
0.999972
0.999998
0.999979
0.99991
0.999971
0.99998
0.999968
0.999992
1
1
1
1
1
1
1
1
1
1
0.999998
0.999967
0.999985
0.999995
0.999999
0.999997
0.999978
0.999995
0.999968
0.999968
0.999997
1
1
1
1
1
1
1
1
1
0.999971
0.999967
0.999986
0.999986
0.999992
1
0.999995
0.999999
0.999984
0.999968
0.999969
0.999999
1
1
1
1
1
1
0.999999
0.999978
0.999968
0.999972
0.99999
0.999987
0.999989
1
0.999944
0.999999
0.999999
0.999984
0.999968
0.999992
1
1
1
1
1
1
0.999996
0.999968
0.999968
0.999997
1
0.999997
0.999998
1
0.99991
0.99993
0.999999
0.999997
0.999993
0.999992
0.999999
1
1
1
1
1
0.999993
0.999984
0.999994
1
1
1
1
0.999996
0.999948
0.999892
0.999895
0.999991
0.999998
0.999997
0.999999
1
1
1
1
1
0.999997
1
1
1
1
1
1
0.999999
1
0.999937
0.999885
0.99989
0.999999
1
1
1
1
1
1
1
1
1
1
1
1
1
1
0.999999
1
1
0.999965
0.999888
0.999916
0.999999
1
1
1
1
1
1
0.999999
1
1
1
1
1
1
0.999999
0.999962
0.999973
0.999981
0.999966
0.999914
0.999961
1
1
1
1
1
1
0.999999
1
1
1
0.999989
0.999971
0.999998
1
0.999821
0.999789
0.99986
0.999981
0.99998
0.99996
0.999994
1
1
1
1
0.999999
0.999999
1
0.999996
0.999888
0.999784
0.999812
1
0.999991
0.999789
0.999789
0.999799
0.999976
1
0.999979
0.999985
0.999999
1
1
0.999999
0.999999
1
1
0.999981
0.999799
0.999784
0.999784
0.999991
1
0.999851
0.999869
0.999957
0.999996
1
1
0.999985
0.999999
1
1
0.999999
0.999999
1
1
0.999997
0.999957
0.999885
0.999871
0.999999
0.999981
0.999981
0.999996
1
1
1
1
0.999985
0.999991
1
1
0.999999
1
1
1
1
1
0.999999
0.999982
0.999979
0.99997
0.999902
0.999977
1
1
1
1
0.999995
0.99999
0.999999
1
0.999999
1
1
1
1
1
0.999967
0.999889
0.999968
0.999979
0.999902
0.999978
1
1
1
1
1
0.99999
0.999998
1
1
1
1
1
1
1
0.999979
0.999889
0.999979
0.999989
0.999926
0.999999
1
1
1
1
1
0.999998
0.999998
1
1
1
1
1
1
1
0.999999
0.999933
0.999991
0.999995
1
1
1
1
1
1
1
1
1
1
1
1
1
1
1
1
1
1
0.999995
0.999996
0.999987
1
1
1
1
1
1
1
1
1
1
1
1
1
1
1
1
0.999986
0.999996
1
0.999982
0.999762
1
1
1
1
0.921593
0.837466
0.796253
0.796323
0.837614
0.92192
1
1
1
1
0.999756
0.999981
1
1
1
0.99021
0.932859
0.770256
0.507946
0.234079
0.090906
0.0461121
0.0175827
0.0176365
0.0461671
0.0911261
0.234525
0.508795
0.770717
0.933057
0.99023
1
1
1
0.953497
0.768729
0.413139
0.117278
-5.28372e-20
-2.54904e-19
9.33558e-29
1.05633e-28
-9.12539e-21
-5.49755e-21
2.82068e-29
-4.63496e-31
1.54603e-20
5.30003e-19
0.117688
0.41387
0.768967
0.953555
1
0.972389
0.593164
0.172122
3.68494e-15
3.68997e-15
2.32809e-11
4.21157e-11
8.1748e-11
1.667e-10
2.1509e-10
8.75163e-11
2.28718e-11
3.55728e-12
7.75284e-13
1.81222e-13
3.82126e-18
3.92496e-18
0.172755
0.593636
0.972703
0.457096
0.0264406
4.6647e-15
7.4296e-15
4.44286e-14
3.02857e-13
2.92553e-12
2.57004e-11
1.22488e-10
2.25038e-10
6.44996e-11
7.76758e-12
3.17765e-13
6.25373e-15
2.27473e-16
3.4391e-17
8.88148e-18
6.51293e-18
0.0266099
0.457619
0.0255538
1.61726e-16
4.71463e-15
2.28197e-14
3.34845e-14
4.87967e-15
2.30256e-14
1.98041e-12
4.49191e-11
1.96888e-10
4.76184e-11
2.22453e-12
1.99378e-14
1.06609e-16
9.53564e-18
3.39493e-17
2.87587e-17
7.66371e-18
2.75312e-19
0.025604
-2.09855e-20
1.7604e-16
4.5344e-15
1.26396e-14
7.65586e-15
2.01013e-15
1.7802e-15
6.89151e-14
1.21377e-11
1.64183e-10
4.18406e-11
5.08324e-13
1.84841e-15
2.00765e-17
3.89497e-18
1.2875e-17
1.98739e-17
7.40426e-18
3.00011e-19
3.75385e-20
1.25087e-19
6.83008e-19
3.10905e-16
2.9649e-15
1.94641e-15
1.2966e-15
1.26634e-15
1.81465e-14
2.55033e-12
1.5283e-10
4.05173e-11
1.66048e-14
1.22966e-15
8.51161e-18
2.4288e-18
3.57176e-18
5.05061e-18
4.27491e-19
-3.38795e-20
2.85792e-39
3.94046e-18
3.01483e-18
6.35514e-18
2.91639e-16
8.32765e-16
8.45497e-16
9.31521e-16
1.7464e-14
1.40389e-12
1.47778e-10
4.5027e-11
5.67308e-18
1.43935e-15
5.58751e-18
1.57773e-18
1.55664e-18
4.98864e-19
-2.14162e-37
-4.80603e-20
-2.68255e-20
1.40176e-17
2.74456e-18
1.37498e-17
2.479e-16
5.8992e-16
5.68433e-16
7.51993e-16
5.29085e-14
7.46443e-13
1.64399e-10
5.26632e-11
5.67308e-18
3.24388e-15
4.72277e-18
1.07281e-18
1.11162e-18
4.45309e-19
-2.69889e-21
-3.67763e-20
-3.82845e-20
1.8685e-35
1.57561e-35
6.77935e-17
3.0992e-16
3.75711e-16
3.4816e-16
7.72902e-16
1.57006e-13
2.62906e-13
2.04684e-10
6.67654e-11
5.67308e-18
5.73127e-15
4.56218e-18
7.14903e-19
7.31661e-19
5.80067e-19
1.08268e-19
-1.71384e-20
-1.97732e-20
6.38085e-05
2.27373e-06
7.75254e-25
1.2885e-16
1.48407e-16
2.10845e-16
1.02924e-15
4.72518e-13
1.85231e-14
2.79761e-10
8.99316e-11
5.67308e-18
8.84254e-15
2.8938e-18
4.46855e-19
3.32922e-19
3.29301e-19
1.16789e-19
1.12409e-24
1.24426e-05
0.000224912
1.9157e-05
1.2731e-25
1.04763e-17
3.91841e-17
1.02915e-16
1.64917e-15
9.68331e-13
1.85231e-14
3.82873e-10
1.28836e-10
5.67308e-18
1.17185e-14
8.96268e-19
1.68055e-19
7.87261e-20
3.83316e-20
3.77256e-20
1.71022e-05
9.15516e-05
9.11059e-05
1.47433e-05
8.01493e-25
7.15941e-25
6.43889e-20
1.50195e-17
3.0358e-14
1.66708e-12
1.85231e-14
4.59802e-10
1.9695e-10
5.67308e-18
1.36214e-14
4.49331e-19
7.47457e-20
1.75837e-20
1.75765e-20
4.27236e-06
2.55261e-05
3.78894e-05
7.27489e-10
2.29396e-06
3.74814e-07
7.2905e-08
-2.61467e-27
-5.48773e-36
2.04143e-14
2.15859e-12
1.85231e-14
4.87311e-10
3.25565e-10
5.67308e-18
7.0177e-15
3.33558e-19
7.51198e-20
6.16424e-07
2.40733e-06
4.30178e-06
3.74053e-06
-5.06292e-24
2.34371e-13
3.86953e-13
1.43749e-07
1.29987e-07
5.48046e-08
1.68888e-09
2.05005e-14
2.5071e-12
1.85231e-14
1.22278e-09
5.86287e-10
5.67308e-18
2.33455e-16
3.35238e-19
2.70488e-07
7.55087e-07
7.97499e-07
2.66656e-07
1.69176e-13
1.68749e-13
9.73149e-13
7.66832e-13
7.68552e-13
2.22878e-08
2.88383e-08
8.90858e-09
3.84556e-10
1.85231e-14
1.85231e-14
1.18514e-08
1.08445e-09
5.67308e-18
5.67308e-18
2.88675e-08
1.20607e-07
1.09922e-07
1.97449e-13
1.97116e-13
1.96784e-13
7.01528e-13
1.3029e-12
1.7961e-12
2.21294e-12
2.21876e-12
1.29333e-10
3.37202e-09
9.37976e-10
4.31893e-11
1.85231e-14
2.27376e-08
1.58671e-09
1.41754e-10
2.43959e-09
1.24866e-08
6.35549e-13
6.33734e-13
6.31924e-13
1.01233e-12
7.78127e-13
1.04427e-12
5.69467e-12
4.01847e-12
5.88728e-12
7.32114e-12
7.33922e-12
2.35914e-10
3.56044e-10
4.20922e-11
1.85231e-14
2.32518e-08
1.73105e-09
1.0351e-09
4.9426e-09
2.7585e-09
6.36128e-13
3.77661e-12
3.56424e-12
3.36376e-12
3.10522e-12
3.57014e-12
4.67532e-11
1.14409e-11
7.67167e-12
1.52591e-11
1.43834e-11
1.8266e-11
2.03658e-10
4.0271e-11
1.43808e-08
2.32532e-08
1.51618e-09
1.34842e-09
5.00025e-09
3.89182e-09
5.91596e-10
2.50904e-11
1.04308e-11
5.85516e-12
1.04822e-11
3.12848e-11
2.93746e-10
2.39711e-11
8.04778e-12
1.66256e-11
2.68726e-11
1.82884e-11
6.20246e-10
9.39145e-09
2.53676e-08
1.88327e-08
7.90132e-10
1.1458e-09
5.00048e-09
4.93195e-09
1.30441e-09
8.84611e-11
1.68702e-11
7.84308e-12
2.29652e-11
2.05325e-10
1.17628e-09
2.88848e-11
8.70489e-12
1.59405e-11
4.24178e-11
1.83107e-11
2.65601e-09
2.53655e-08
2.53676e-08
5.51234e-09
1.64469e-10
6.3037e-10
3.03223e-09
3.40293e-09
1.12704e-09
1.17689e-10
1.70574e-11
9.1561e-12
2.90325e-11
9.44195e-10
1.91363e-09
2.90483e-11
9.45152e-12
1.33278e-11
4.87969e-11
1.83328e-11
2.99042e-09
2.46326e-08
2.53676e-08
9.64702e-10
1.60974e-11
1.89959e-10
4.58185e-10
7.56001e-10
4.32194e-10
9.04169e-11
1.30417e-11
9.35565e-12
2.93295e-11
1.87659e-09
1.75074e-09
2.46198e-11
9.40431e-12
9.2371e-12
4.88381e-11
1.01826e-10
1.89418e-09
7.03964e-09
1.25013e-08
1.80132e-10
9.3651e-12
3.45464e-11
1.17308e-11
2.03896e-11
4.12433e-11
3.01286e-11
6.73066e-12
9.12266e-12
2.63721e-11
1.83013e-09
1.00379e-09
1.47304e-11
8.49974e-12
5.72318e-12
4.23816e-11
1.41097e-10
3.08421e-10
3.75859e-12
1.19291e-10
1.61312e-11
9.22297e-12
1.06375e-11
7.55716e-12
4.91045e-12
3.76139e-12
4.52914e-12
3.75547e-12
7.95528e-12
1.80986e-11
1.18178e-09
2.32326e-10
4.76856e-12
6.11903e-12
3.48796e-12
2.49252e-11
1.15956e-10
1.03593e-11
3.75859e-12
3.75859e-12
7.77938e-12
9.01845e-12
8.12726e-12
7.4533e-12
5.09439e-12
3.31311e-12
2.06064e-12
2.61249e-12
5.60059e-12
7.58009e-12
3.30595e-10
1.29835e-11
5.67388e-13
2.99461e-12
1.9753e-12
7.73558e-12
5.02948e-11
4.41641e-12
3.86611e-12
4.103e-12
7.63428e-12
8.49945e-12
7.2802e-12
7.24448e-12
5.18809e-12
3.2302e-12
1.62536e-12
1.64246e-12
2.79058e-12
1.37338e-12
2.42927e-11
1.06797e-13
1.61449e-14
7.81297e-13
8.60887e-13
1.30692e-12
8.93615e-12
3.91938e-12
4.24374e-12
5.06236e-12
7.47609e-12
7.41849e-12
6.38412e-12
6.77929e-12
5.05951e-12
3.00212e-12
1.14652e-12
6.86e-13
7.93017e-13
7.02048e-14
2.80154e-13
1.12801e-16
3.22631e-16
7.67227e-14
2.13779e-13
2.9885e-13
2.08008e-12
3.71314e-12
4.61306e-12
5.67987e-12
7.00537e-12
5.71256e-12
5.10941e-12
5.90264e-12
4.5008e-12
2.4367e-12
5.5821e-13
1.32194e-13
9.28499e-14
9.31099e-16
3.69487e-16
1.97464e-18
2.61438e-16
1.90382e-15
2.03508e-14
1.12177e-13
1.37471e-12
3.4523e-12
4.619e-12
5.65391e-12
5.93235e-12
3.65518e-12
3.50789e-12
4.55003e-12
3.39312e-12
1.54283e-12
1.42597e-13
7.72601e-15
3.03536e-15
2.72132e-16
1.40968e-18
3.24905e-19
2.63359e-16
1.55836e-17
5.00148e-16
3.5159e-14
9.49056e-13
2.94881e-12
4.38723e-12
5.24375e-12
4.22221e-12
1.82372e-12
1.95755e-12
2.90062e-12
2.00764e-12
6.55748e-13
1.50969e-14
1.10955e-16
2.71773e-17
2.70683e-16
3.17741e-19
1.15361e-19
2.55215e-16
6.30097e-18
1.54139e-17
5.92005e-15
4.72681e-13
2.08049e-12
3.61805e-12
4.12063e-12
2.30251e-12
7.11162e-13
8.78774e-13
1.39591e-12
8.37156e-13
1.54239e-13
1.30658e-15
1.66442e-17
7.08784e-18
2.61492e-16
1.53262e-19
4.82241e-20
2.06271e-16
5.61063e-18
9.36351e-18
6.81494e-16
1.21579e-13
1.02136e-12
2.27117e-12
2.42058e-12
8.71269e-13
2.76446e-13
3.59302e-13
4.60825e-13
2.10346e-13
1.80831e-14
4.90172e-16
1.32952e-17
6.30663e-18
2.13997e-16
7.0102e-20
1.32336e-20
1.05448e-16
4.84688e-18
6.78694e-18
2.08782e-16
1.16332e-14
2.67711e-13
8.89813e-13
8.97599e-13
2.37738e-13
1.48891e-13
1.71698e-13
1.09081e-13
2.82879e-14
2.09222e-15
2.71353e-16
1.03684e-17
5.55364e-18
1.14348e-16
1.98476e-20
1.4944e-21
2.33184e-17
3.61003e-18
3.7676e-18
1.01748e-16
6.24089e-16
2.66173e-14
1.66393e-13
1.82739e-13
7.75577e-14
1.00486e-13
1.02062e-13
3.04735e-14
3.22931e-15
6.46531e-16
1.16907e-16
6.22925e-18
4.28817e-18
2.75934e-17
2.36363e-21
2.76029e-23
1.42056e-18
2.0317e-18
1.14031e-18
3.84648e-17
1.71655e-16
1.01553e-15
1.48635e-14
3.36357e-14
4.23825e-14
6.81348e-14
6.52581e-14
1.45476e-14
9.18631e-16
2.6645e-16
2.62295e-17
2.24563e-18
2.54197e-18
1.92311e-18
5.12868e-23
1.84672e-26
1.51799e-20
7.04807e-19
1.25907e-19
7.04401e-18
8.30676e-17
1.95795e-16
3.73437e-15
1.61679e-14
2.72216e-14
3.96683e-14
3.89173e-14
8.49627e-15
4.08493e-16
8.20691e-17
2.03011e-18
3.48522e-19
9.44794e-19
2.45611e-20
3.82266e-26
4.65792e-31
2.46868e-23
1.10374e-19
3.28119e-21
3.96772e-19
2.99996e-17
1.1229e-16
2.5427e-15
1.12473e-14
1.54915e-14
1.68624e-14
1.919e-14
4.54569e-15
1.55439e-16
1.24619e-17
3.91553e-20
1.55749e-20
1.61615e-19
4.74246e-23
9.80144e-31
4.43384e-34
1.40455e-25
5.25833e-21
1.4582e-23
4.98646e-21
4.97881e-18
5.74632e-17
1.75081e-15
7.23799e-15
6.2127e-15
4.22257e-15
6.88049e-15
1.8282e-15
3.43927e-17
6.28153e-19
9.08064e-22
1.33813e-22
8.5653e-21
2.44495e-25
6.90976e-34
1.542e-36
8.47141e-28
5.06782e-23
4.75512e-25
1.11376e-22
2.40101e-19
1.69382e-17
9.03191e-16
3.4016e-15
1.32718e-15
4.83045e-16
1.55273e-15
4.52568e-16
3.13521e-18
8.35156e-21
1.94644e-22
3.12285e-25
9.30469e-23
1.44812e-27
2.10687e-36
6.67152e-40
4.94479e-31
6.86382e-26
2.15675e-25
2.11998e-23
2.39612e-21
1.90409e-18
2.61119e-16
8.97036e-16
1.0923e-16
2.58355e-17
2.00303e-16
5.61416e-17
1.19157e-19
1.9899e-22
4.35151e-23
6.15409e-26
1.43006e-25
1.48857e-30
1.18009e-39
1.09598e-44
1.92072e-35
1.01078e-29
8.67059e-26
3.53206e-24
4.74933e-23
6.12413e-20
2.97871e-17
9.66175e-17
3.76249e-18
3.28803e-18
1.84416e-17
3.39036e-18
1.37279e-20
3.2903e-23
4.374e-24
2.78566e-26
2.29161e-29
5.18036e-35
-6.83992e-42
-2.93247e-41
1.48949e-39
8.87702e-32
1.66075e-26
2.2268e-25
1.01911e-23
3.20108e-21
9.97741e-19
3.63101e-18
6.1055e-19
1.28935e-18
2.53996e-18
2.42403e-19
4.99915e-21
5.2559e-24
1.11529e-25
8.57638e-27
2.48318e-32
1.07538e-39
-6.61576e-41
-2.35035e-41
3.15892e-41
8.04021e-33
9.06933e-28
2.98946e-27
1.9476e-24
1.09336e-21
3.7504e-20
2.72725e-19
2.84509e-19
5.1074e-19
5.70187e-19
4.80667e-20
1.69529e-21
3.60205e-25
4.60419e-28
1.0223e-27
4.56492e-33
2.7848e-42
-4.98723e-41
-1.47068e-41
3.23355e-43
1.97744e-34
8.849e-30
5.51148e-30
1.45005e-25
3.78582e-22
1.12104e-20
9.8554e-20
1.16024e-19
1.22226e-19
1.22949e-19
1.20072e-20
3.14998e-22
6.11329e-27
5.56953e-31
2.85989e-29
8.78439e-35
-4.88612e-40
-3.04979e-41
-7.79135e-42
-1.99346e-40
5.27517e-37
1.03886e-32
2.52972e-33
2.37825e-27
6.6932e-23
3.95625e-21
3.72296e-20
2.51433e-20
1.14832e-20
1.65811e-20
2.04593e-21
2.13986e-23
1.69514e-29
2.00779e-32
1.20458e-31
1.54292e-37
-7.34253e-40
-1.59387e-41
-3.59918e-42
-2.65519e-40
7.14415e-40
1.07931e-36
4.02417e-35
5.62992e-30
3.62121e-24
7.83265e-22
8.03918e-21
1.84172e-21
2.81206e-22
1.01488e-21
1.55583e-22
4.25988e-25
2.51534e-32
1.05238e-33
5.29713e-35
2.93845e-40
-7.56598e-40
-7.29972e-42
-1.47985e-42
-2.56574e-40
5.88311e-42
4.78114e-40
8.62077e-37
1.37295e-32
4.02707e-26
5.16257e-23
6.19987e-22
2.97975e-23
2.00828e-24
2.48516e-23
3.81392e-24
7.25913e-27
3.84731e-33
2.11769e-35
6.29995e-39
3.75167e-42
-6.62825e-40
-2.98532e-42
-5.50481e-43
-2.10867e-40
1.54115e-45
1.73427e-41
6.33289e-39
2.51248e-33
2.61496e-28
7.20536e-25
1.1085e-23
1.66819e-25
1.74868e-25
4.7726e-25
3.18528e-26
4.86592e-28
1.39002e-33
8.12947e-38
2.18134e-40
-5.28718e-42
-5.13312e-40
-1.10711e-42
-1.87819e-43
-1.53785e-40
-4.98775e-42
2.4124e-43
4.85225e-41
6.73258e-34
1.89474e-29
2.31109e-27
4.16238e-26
2.25906e-26
4.52413e-26
2.40947e-26
6.596e-28
3.26466e-29
6.22401e-34
3.30628e-41
6.82696e-42
-1.64157e-41
-3.58577e-40
-3.77205e-43
-5.94844e-44
-1.01615e-40
-8.8381e-42
-6.91715e-42
6.4964e-41
2.09261e-34
1.51261e-30
1.05749e-28
1.48093e-27
5.8411e-27
7.88421e-27
1.66769e-27
4.65188e-29
8.8534e-31
3.25114e-34
-1.21345e-42
-9.48169e-42
-2.5307e-41
-2.29036e-40
-1.1942e-43
-1.76749e-44
-6.16432e-41
-1.10988e-41
-1.79589e-41
3.41976e-40
1.01341e-34
4.55329e-32
1.34141e-29
2.44604e-28
8.43225e-28
4.77274e-28
7.18401e-29
2.7033e-30
5.49191e-33
1.79936e-34
-1.40817e-41
-3.38832e-41
-3.01277e-41
-1.35125e-40
-3.54833e-44
-4.97428e-45
-3.46617e-41
-1.17924e-41
-3.01168e-41
9.54312e-40
5.7601e-35
2.7762e-34
9.20263e-31
2.72155e-29
3.57598e-29
6.02706e-30
1.17392e-30
6.15919e-32
1.15147e-35
9.02965e-35
-3.12628e-41
-6.07878e-41
-3.0901e-41
-7.42212e-41
-9.98306e-45
-1.33687e-45
-1.82007e-41
-1.12021e-41
-4.13853e-41
8.04631e-40
2.70607e-35
5.46853e-37
1.63015e-32
9.58765e-31
2.69038e-31
1.05047e-32
5.51339e-33
3.37366e-34
5.97355e-37
3.43498e-35
-5.58276e-41
-8.48135e-41
-2.8538e-41
-3.82036e-41
-2.68055e-45
-3.45494e-46
-8.97955e-42
-9.75225e-42
-5.01203e-41
2.84729e-40
7.67968e-36
2.63191e-38
4.45484e-35
6.31147e-33
2.399e-34
2.94373e-36
8.41106e-36
3.18647e-37
6.28102e-38
7.82537e-36
-8.7298e-41
-1.02426e-40
-2.4252e-41
-1.85286e-41
-6.9186e-46
-8.62815e-47
-4.18413e-42
-7.88795e-42
-5.5202e-41
1.76117e-41
9.1958e-37
2.04342e-39
1.29558e-38
5.17944e-36
4.57752e-38
5.74122e-38
1.30185e-38
7.62946e-41
3.44873e-39
7.77221e-37
-1.23028e-40
-1.11813e-40
-1.92047e-41
-8.50752e-42
-1.72764e-46
-2.09478e-47
-1.84971e-42
-5.98061e-42
-5.62343e-41
-3.57568e-41
3.12215e-38
6.76755e-41
4.70027e-42
4.19688e-40
1.20489e-39
2.919e-39
3.48985e-41
1.50768e-43
4.90333e-41
2.31723e-38
-1.58798e-40
-1.12728e-40
-1.42904e-41
-3.71363e-42
-4.19937e-47
-4.99587e-48
-7.78924e-43
-4.27859e-42
-5.35502e-41
-7.24603e-41
1.98018e-40
3.97358e-43
3.5029e-44
2.19749e-43
4.89584e-41
6.64507e-41
6.12537e-44
2.65409e-46
9.38333e-44
1.3136e-40
-1.8984e-40
-1.06267e-40
-1.00547e-41
-1.54688e-42
-9.99921e-48
-1.1773e-48
-3.1358e-43
-2.90343e-42
-4.80294e-41
-9.4946e-41
1.31991e-43
-1.70931e-43
5.74493e-47
8.86762e-46
7.34357e-43
3.09149e-43
2.46381e-47
-2.28559e-44
-5.45743e-43
5.94488e-44
-2.12006e-40
-9.44338e-41
-6.72302e-42
-6.16968e-43
-2.34722e-48
-2.75289e-49
-1.21088e-43
-1.87715e-42
-4.08111e-41
-1.06366e-40
-7.70904e-42
-7.0507e-43
-3.49758e-44
-1.47898e-45
1.69569e-45
1.51495e-46
-5.06533e-45
-9.09423e-44
-1.58932e-42
-1.78698e-41
-2.22692e-40
-7.95854e-41
-4.29007e-42
-2.36364e-43
-5.46903e-49
-6.43732e-50
-4.49859e-44
-1.16075e-42
-3.30116e-41
-1.09027e-40
-1.63595e-41
-1.44961e-42
-1.05766e-43
-8.47016e-45
-2.86102e-45
-7.61549e-45
-1.95064e-44
-2.29397e-43
-3.10421e-42
-3.55008e-41
-2.2127e-40
-6.39147e-41
-2.62219e-42
-8.72339e-44
-1.27732e-49
-1.51868e-50
-1.61253e-44
-6.88832e-43
-2.55249e-41
-1.04813e-40
-2.43764e-41
-2.44632e-42
-2.25223e-43
-2.34995e-44
-9.58229e-45
-2.11488e-44
-4.96522e-44
-4.66822e-43
-5.12766e-42
-5.15174e-41
-2.08976e-40
-4.91121e-41
-1.54022e-42
-3.1101e-44
-3.03527e-50
-3.62936e-51
-5.59181e-45
-3.9351e-43
-1.89343e-41
-9.56011e-41
-3.11396e-41
-3.67409e-42
-4.06343e-43
-5.05189e-44
-2.02715e-44
-4.26426e-44
-1.03266e-43
-8.26667e-43
-7.5978e-42
-6.47414e-41
-1.88381e-40
-3.62354e-41
-8.71956e-43
-1.07395e-44
-7.41972e-51
-8.84259e-52
-1.88067e-45
-2.17009e-43
-1.35186e-41
-8.32822e-41
-3.60702e-41
-5.05364e-42
-6.5506e-43
-9.3337e-44
-3.62265e-44
-7.46292e-44
-1.87481e-43
-1.31756e-42
-1.03393e-41
-7.40307e-41
-1.62681e-40
-2.57517e-41
-4.77042e-43
-3.60093e-45
-1.86969e-51
-2.22952e-52
-6.14946e-46
-1.15822e-43
-9.31747e-42
-6.96093e-41
-3.88071e-41
-6.45861e-42
-9.66173e-43
-1.54487e-43
-5.82316e-44
-1.18342e-43
-3.06577e-43
-1.92611e-42
-1.30913e-41
-7.87707e-41
-1.35025e-40
-1.76787e-41
-2.52831e-43
-1.17523e-45
-4.83085e-52
-5.84568e-53
-1.9595e-46
-5.99674e-44
-6.21605e-42
-5.60218e-41
-3.92925e-41
-7.74e-42
-1.3217e-42
-2.34046e-43
-8.61467e-44
-1.73141e-43
-4.59944e-43
-2.61455e-42
-1.55578e-41
-7.89755e-41
-1.08034e-40
-1.17543e-41
-1.30103e-43
-3.74235e-46
-1.26942e-52
-1.55183e-53
-6.09867e-47
-3.01851e-44
-4.02399e-42
-4.3544e-41
-3.77559e-41
-8.75629e-42
-1.69242e-42
-3.28874e-43
-1.18728e-43
-2.36285e-43
-6.40849e-43
-3.32449e-42
-1.74669e-41
-7.52156e-41
-8.35501e-41
-7.58731e-42
-6.51375e-44
-1.1655e-46
-3.35975e-53
-4.02203e-54
-1.85819e-47
-1.48011e-44
-2.53345e-42
-3.27746e-41
-3.46351e-41
-9.40098e-42
-2.04249e-42
-4.32569e-43
-1.53695e-43
-3.03132e-43
-8.36558e-43
-3.98631e-42
-1.86222e-41
-6.84418e-41
-6.26113e-41
-4.76516e-42
-3.179e-44
-3.55844e-47
-8.96385e-54
-1.02058e-54
-5.55528e-48
-7.08316e-45
-1.55448e-42
-2.3946e-41
-3.04711e-41
-9.62054e-42
-2.33586e-42
-5.36244e-43
-1.88037e-43
-3.67786e-43
-1.02996e-42
-4.53163e-42
-1.89347e-41
-5.97685e-41
-4.55699e-41
-2.91771e-42
-1.51508e-44
-1.06765e-47
-2.39715e-54
-2.63201e-55
-1.63343e-48
-3.3139e-45
-9.31343e-43
-1.70207e-41
-2.58057e-41
-9.41938e-42
-2.54279e-42
-6.29951e-43
-2.18505e-43
-4.24071e-43
-1.20237e-42
-4.90563e-42
-1.8429e-41
-5.02744e-41
-3.22815e-41
-1.74496e-42
-7.06275e-45
-3.15557e-48
-6.37092e-55
-6.95207e-56
-4.73513e-49
-1.51818e-45
-5.45806e-43
-1.17939e-41
-2.11043e-41
-8.85242e-42
-2.64486e-42
-7.04413e-43
-2.42161e-43
-4.6658e-43
-1.33675e-42
-5.07608e-42
-1.72249e-41
-4.08602e-41
-2.23019e-41
-1.02103e-42
-3.22524e-45
-9.21073e-49
-1.67275e-55
-2.00505e-56
-1.35682e-49
-6.82043e-46
-3.13371e-43
-7.98173e-42
-1.67134e-41
-8.0092e-42
-2.63734e-42
-7.52601e-43
-2.56866e-43
-4.91552e-43
-1.42059e-42
-5.0371e-42
-1.55053e-41
-3.21754e-41
-1.50538e-41
-5.85419e-43
-1.44477e-45
-2.66176e-49
-4.33858e-56
-6.0724e-57
-3.85336e-50
-3.00878e-46
-1.76516e-43
-5.28514e-42
-1.28492e-41
-6.99446e-42
-2.52857e-42
-7.70801e-43
-2.61583e-43
-4.97388e-43
-1.44778e-42
-4.80748e-42
-1.34775e-41
-2.46087e-41
-9.94503e-42
-3.29357e-43
-6.35679e-46
-7.63492e-50
-1.10466e-56
-1.77932e-57
-1.08755e-50
-1.30495e-46
-9.76718e-44
-3.42951e-42
-9.61157e-42
-5.91038e-42
-2.33713e-42
-7.58964e-43
-2.56453e-43
-4.84713e-43
-1.41904e-42
-4.42469e-42
-1.13395e-41
-1.83219e-41
-6.44025e-42
-1.82043e-43
-2.75028e-46
-2.17904e-50
-2.74926e-57
-4.76934e-58
-3.0585e-51
-5.5706e-47
-5.31491e-44
-2.18406e-42
-7.01016e-42
-4.84345e-42
-2.08758e-42
-7.20335e-43
-2.4265e-43
-4.56049e-43
-1.34111e-42
-3.93662e-42
-9.25557e-42
-1.33067e-41
-4.09411e-42
-9.89596e-44
-1.17131e-46
-6.20215e-51
-6.50897e-58
-1.17161e-58
-8.59231e-52
-2.34289e-47
-2.84703e-44
-1.36687e-42
-4.99479e-42
-3.85737e-42
-1.80605e-42
-6.60568e-43
-2.22085e-43
-4.15201e-43
-1.22501e-42
-3.39319e-42
-7.34433e-42
-9.4453e-42
-2.55822e-42
-5.29588e-44
-4.91513e-47
-1.76408e-51
-1.52347e-58
-2.71291e-59
-2.41664e-52
-9.71714e-48
-1.50255e-44
-8.4166e-43
-3.48288e-42
-2.99149e-42
-1.51653e-42
-5.86578e-43
-1.97036e-43
-3.66557e-43
-1.08384e-42
-2.83951e-42
-5.6767e-42
-6.56408e-42
-1.57304e-42
-2.79239e-44
-2.03392e-47
-5.02296e-52
-3.68722e-59
-6.26684e-60
-6.8178e-53
-3.97754e-48
-7.81853e-45
-5.10449e-43
-2.38074e-42
-2.26339e-42
-1.23842e-42
-5.05418e-43
-1.69791e-43
-3.14424e-43
-9.30739e-43
-2.31142e-42
-4.28197e-42
-4.47353e-42
-9.52827e-43
-1.45173e-44
-8.30618e-48
-1.43402e-52
-9.79551e-60
-1.51053e-60
-1.93268e-53
-1.60808e-48
-4.01382e-45
-3.05194e-43
-1.59769e-42
-1.67369e-42
-9.85339e-43
-4.23381e-43
-1.42378e-43
-2.62536e-43
-7.77245e-43
-1.83368e-42
-3.15761e-42
-2.99427e-42
-5.69049e-43
-7.44627e-45
-3.34994e-48
-4.11009e-53
-2.85105e-60
-3.78453e-61
-5.51239e-54
-6.42549e-49
-2.03405e-45
-1.80034e-43
-1.05411e-42
-1.21161e-42
-7.65198e-43
-3.45432e-43
-1.16385e-43
-2.13761e-43
-6.3233e-43
-1.42017e-42
-2.28012e-42
-1.97098e-42
-3.3534e-43
-3.77023e-45
-1.33508e-48
-1.18307e-53
-8.29341e-61
-1.00151e-61
-1.58295e-54
-2.53904e-49
-1.01798e-45
-1.04854e-43
-6.84588e-43
-8.60003e-43
-5.80982e-43
-2.74977e-43
-9.28993e-44
-1.70006e-43
-5.02035e-43
-1.07561e-42
-1.61479e-42
-1.27748e-42
-1.95124e-43
-1.88526e-45
-5.26081e-49
-3.41964e-54
-2.32509e-61
-2.97564e-62
-4.57786e-55
-9.9272e-50
-5.03338e-46
-6.03292e-44
-4.38139e-43
-5.99411e-43
-4.3196e-43
-2.1392e-43
-7.25243e-44
-1.32279e-43
-3.89622e-43
-7.9791e-43
-1.12321e-42
-8.16159e-43
-1.1217e-43
-9.3137e-46
-2.05058e-49
-9.91704e-55
-6.41943e-62
-9.41141e-63
-1.33342e-55
-3.84227e-50
-2.45965e-46
-3.43077e-44
-2.76605e-43
-4.10797e-43
-3.14972e-43
-1.62896e-43
-5.54596e-44
-1.00848e-43
-2.9604e-43
-5.80619e-43
-7.68386e-43
-5.14469e-43
-6.37362e-44
-4.54743e-46
-7.9099e-50
-2.88362e-55
-1.80527e-62
-2.91077e-63
-3.9085e-56
-1.4728e-50
-1.18824e-46
-1.92912e-44
-1.72403e-43
-2.77171e-43
-2.25561e-43
-1.21599e-43
-4.16029e-44
-7.5444e-44
-2.20546e-43
-4.15028e-43
-5.17607e-43
-3.20232e-43
-3.58113e-44
-2.19497e-46
-3.02067e-50
-8.40787e-56