/*--------------------------------*- C++ -*----------------------------------*\
| =========                 |                                                 |
| \\      /  F ield         | OpenFOAM: The Open Source CFD Toolbox           |
|  \\    /   O peration     | Version:  5.x                                   |
|   \\  /    A nd           | Web:      www.OpenFOAM.org                      |
|    \\/     M anipulation  |                                                 |
\*---------------------------------------------------------------------------*/
FoamFile
{
    version     2.0;
    format      ascii;
    class       surfaceScalarField;
    location    "0.3";
    object      alphaPhi10;
}
// * * * * * * * * * * * * * * * * * * * * * * * * * * * * * * * * * * * * * //

dimensions      [0 3 -1 0 0 0 0];

internalField   nonuniform List<scalar> 
15580
(
3.39698e-18
7.26449e-11
6.59245e-18
2.28757e-10
6.76616e-18
3.81248e-10
5.88977e-18
5.21848e-10
4.7082e-18
6.45871e-10
3.45741e-18
7.50609e-10
2.17557e-18
8.3467e-10
8.61965e-19
8.97563e-10
-4.77025e-19
9.39302e-10
-1.80913e-18
9.60091e-10
-3.06995e-18
9.60091e-10
-4.12913e-18
9.39302e-10
-4.7637e-18
8.97563e-10
-4.63396e-18
8.3467e-10
-3.29778e-18
7.50608e-10
-3.47938e-19
6.45871e-10
4.16498e-18
5.21848e-10
8.66911e-18
3.81248e-10
8.49129e-18
2.28757e-10
7.26451e-11
1.36678e-17
7.26449e-11
1.70927e-17
2.28757e-10
1.46004e-17
3.81248e-10
1.09462e-17
5.21848e-10
7.54749e-18
6.45871e-10
4.57973e-18
7.50609e-10
1.84431e-18
8.3467e-10
-8.48493e-19
8.97563e-10
-3.57648e-18
9.39302e-10
-6.29701e-18
9.60091e-10
-8.82311e-18
9.60091e-10
-1.07734e-17
9.39302e-10
-1.15165e-17
8.97563e-10
-1.01479e-17
8.3467e-10
-5.58652e-18
7.50608e-10
3.01967e-18
6.45871e-10
1.51371e-17
5.21848e-10
2.66634e-17
3.81248e-10
2.79461e-17
2.28757e-10
7.26451e-11
2.6333e-17
7.26449e-11
2.49805e-17
2.28757e-10
1.79326e-17
3.81248e-10
1.0862e-17
5.21848e-10
5.35172e-18
6.45871e-10
1.17278e-18
7.50609e-10
-2.32009e-18
8.3467e-10
-5.63896e-18
8.97563e-10
-9.02969e-18
9.39302e-10
-1.24849e-17
9.60091e-10
-1.57336e-17
9.60091e-10
-1.81979e-17
9.39302e-10
-1.89448e-17
8.97563e-10
-1.66989e-17
8.3467e-10
-1.00684e-17
7.50608e-10
1.76634e-18
6.45871e-10
1.75289e-17
5.21848e-10
3.13487e-17
3.81248e-10
3.11037e-17
2.28757e-10
7.26451e-11
2.60699e-17
7.26449e-11
2.3094e-17
2.28757e-10
1.42154e-17
3.81248e-10
5.96509e-18
5.21848e-10
-1.07421e-19
6.45871e-10
-4.53191e-18
7.50609e-10
-8.23023e-18
8.3467e-10
-1.18969e-17
8.97563e-10
-1.58814e-17
9.39302e-10
-2.02029e-17
9.60091e-10
-2.45529e-17
9.60091e-10
-2.82589e-17
9.39302e-10
-3.02372e-17
8.97563e-10
-2.90174e-17
8.3467e-10
-2.30328e-17
7.50608e-10
-1.14546e-17
6.45871e-10
4.21798e-18
5.21848e-10
1.78823e-17
3.81248e-10
1.73549e-17
2.28757e-10
7.26452e-11
1.17284e-17
7.26448e-11
7.38853e-18
2.28757e-10
6.56357e-19
3.81248e-10
-4.99725e-18
5.21848e-10
-9.04322e-18
6.45871e-10
-1.21679e-17
7.50609e-10
-1.52511e-17
8.3467e-10
-1.89224e-17
8.97563e-10
-2.34889e-17
9.39302e-10
-2.89506e-17
9.60091e-10
-3.49957e-17
9.60091e-10
-4.09488e-17
9.39302e-10
-4.56994e-17
8.97563e-10
-4.76918e-17
8.3467e-10
-4.51426e-17
7.50608e-10
-3.67005e-17
6.45871e-10
-2.28219e-17
5.21848e-10
-7.35114e-18
3.81248e-10
-8.17549e-20
2.28757e-10
7.26452e-11
-1.30877e-17
7.26449e-11
-1.80151e-17
2.28757e-10
-1.99571e-17
3.81248e-10
-2.03767e-17
5.21848e-10
-2.04088e-17
6.45871e-10
-2.09576e-17
7.50609e-10
-2.26841e-17
8.3467e-10
-2.59976e-17
8.97563e-10
-3.10656e-17
9.39302e-10
-3.78393e-17
9.60091e-10
-4.60252e-17
9.60091e-10
-5.50287e-17
9.39302e-10
-6.38294e-17
8.97563e-10
-7.09125e-17
8.3467e-10
-7.43093e-17
7.50608e-10
-7.17787e-17
6.45871e-10
-6.15364e-17
5.21848e-10
-4.4244e-17
3.81248e-10
-1.42536e-17
2.28757e-10
7.26451e-11
-3.73746e-17
7.26449e-11
-4.35711e-17
2.28757e-10
-4.07867e-17
3.81248e-10
-3.58555e-17
5.21848e-10
-3.15832e-17
6.45871e-10
-2.92213e-17
7.50609e-10
-2.93137e-17
8.3467e-10
-3.20793e-17
8.97563e-10
-3.75404e-17
9.39302e-10
-4.56181e-17
9.60091e-10
-5.60653e-17
9.60091e-10
-6.84151e-17
9.39302e-10
-8.18547e-17
8.97563e-10
-9.51039e-17
8.3467e-10
-1.06333e-16
7.50608e-10
-1.12983e-16
6.45871e-10
-1.11191e-16
5.21848e-10
-1.00232e-16
3.81248e-10
-6.91673e-17
2.28757e-10
7.26451e-11
-5.1543e-17
7.2645e-11
-5.98935e-17
2.28757e-10
-5.46893e-17
3.81248e-10
-4.64733e-17
5.21848e-10
-3.93322e-17
6.45871e-10
-3.48496e-17
7.50609e-10
-3.36424e-17
8.3467e-10
-3.59268e-17
8.97563e-10
-4.17022e-17
9.39302e-10
-5.08619e-17
9.60091e-10
-6.32432e-17
9.60091e-10
-7.85045e-17
9.39302e-10
-9.60462e-17
8.97563e-10
-1.14871e-16
8.3467e-10
-1.33403e-16
7.50609e-10
-1.49152e-16
6.45871e-10
-1.57536e-16
5.21848e-10
-1.55059e-16
3.81248e-10
-1.28101e-16
2.28757e-10
7.26449e-11
-5.05256e-17
7.2645e-11
-6.1963e-17
2.28757e-10
-5.77521e-17
3.81248e-10
-4.91623e-17
5.21848e-10
-4.12881e-17
6.45871e-10
-3.60776e-17
7.50609e-10
-3.43426e-17
8.3467e-10
-3.64285e-17
8.97563e-10
-4.24397e-17
9.39302e-10
-5.22773e-17
9.60091e-10
-6.58165e-17
9.60091e-10
-8.2802e-17
9.39302e-10
-1.02731e-16
8.97563e-10
-1.24683e-16
8.3467e-10
-1.46914e-16
7.50609e-10
-1.66132e-16
6.45871e-10
-1.77018e-16
5.21848e-10
-1.69688e-16
3.81248e-10
-1.16073e-16
2.28757e-10
7.26448e-11
-3.66344e-17
7.2645e-11
-5.22582e-17
2.28757e-10
-5.11316e-17
3.81248e-10
-4.40259e-17
5.21848e-10
-3.68978e-17
6.45871e-10
-3.21701e-17
7.50609e-10
-3.07292e-17
8.3467e-10
-3.2968e-17
8.97563e-10
-3.90527e-17
9.39302e-10
-4.89956e-17
9.60091e-10
-6.26479e-17
9.60091e-10
-7.97603e-17
9.39302e-10
-9.98269e-17
8.97563e-10
-1.21817e-16
8.3467e-10
-1.43699e-16
7.50609e-10
-1.62279e-16
6.45871e-10
-1.71775e-16
5.21848e-10
-1.59111e-16
3.81248e-10
-1.06198e-16
2.28757e-10
7.26447e-11
-2.54741e-17
7.26451e-11
-3.92752e-17
2.28757e-10
-3.89319e-17
3.81248e-10
-3.33298e-17
5.21848e-10
-2.74368e-17
6.45871e-10
-2.36997e-17
7.50609e-10
-2.30002e-17
8.3467e-10
-2.55897e-17
8.97563e-10
-3.15547e-17
9.39302e-10
-4.0924e-17
9.60091e-10
-5.35809e-17
9.60091e-10
-6.92194e-17
9.39302e-10
-8.72081e-17
8.97563e-10
-1.0626e-16
8.3467e-10
-1.24236e-16
7.50609e-10
-1.38093e-16
6.45871e-10
-1.43037e-16
5.21848e-10
-1.27352e-16
3.81248e-10
-9.15712e-17
2.28757e-10
7.26446e-11
-2.25362e-17
7.26451e-11
-2.48226e-17
2.28757e-10
-2.2527e-17
3.81248e-10
-1.81374e-17
5.21848e-10
-1.40867e-17
6.45871e-10
-1.18661e-17
7.50609e-10
-1.21052e-17
8.3467e-10
-1.5023e-17
8.97563e-10
-2.06522e-17
9.39302e-10
-2.89303e-17
9.60091e-10
-3.96981e-17
9.60091e-10
-5.25774e-17
9.39302e-10
-6.68102e-17
8.97563e-10
-8.09723e-17
8.3467e-10
-9.27822e-17
7.50609e-10
-9.89336e-17
6.45871e-10
-9.5357e-17
5.21848e-10
-7.52987e-17
3.81248e-10
-4.0106e-17
2.28757e-10
7.26446e-11
-4.52546e-18
7.26451e-11
-1.06769e-18
2.28757e-10
-2.61472e-19
3.81248e-10
1.16255e-18
5.21848e-10
2.22781e-18
6.45871e-10
2.32646e-18
7.50609e-10
8.89158e-19
8.3467e-10
-2.33486e-18
8.97563e-10
-7.40633e-18
9.39302e-10
-1.42594e-17
9.60091e-10
-2.26902e-17
9.60091e-10
-3.22742e-17
9.39302e-10
-4.2235e-17
8.97563e-10
-5.12004e-17
8.3467e-10
-5.68522e-17
7.50609e-10
-5.60208e-17
6.45871e-10
-4.65455e-17
5.21848e-10
-2.79152e-17
3.81248e-10
2.66816e-18
2.28757e-10
7.26446e-11
2.69272e-17
7.26451e-11
2.67592e-17
2.28757e-10
2.36479e-17
3.81248e-10
2.12119e-17
5.21848e-10
1.91267e-17
6.45871e-10
1.71193e-17
7.50609e-10
1.4607e-17
8.3467e-10
1.12592e-17
8.97563e-10
6.96979e-18
9.39302e-10
1.78209e-18
9.60091e-10
-4.11327e-18
9.60091e-10
-1.03525e-17
9.39302e-10
-1.62853e-17
8.97563e-10
-2.06153e-17
8.3467e-10
-2.13335e-17
7.50609e-10
-1.70927e-17
6.45871e-10
-8.97313e-18
5.21848e-10
9.41068e-19
3.81248e-10
1.38266e-17
2.28757e-10
7.26446e-11
4.40171e-17
7.2645e-11
4.35637e-17
2.28757e-10
4.02744e-17
3.81248e-10
3.65794e-17
5.21848e-10
3.3253e-17
6.45871e-10
3.03068e-17
7.50609e-10
2.74474e-17
8.3467e-10
2.44348e-17
8.97563e-10
2.12078e-17
9.39302e-10
1.78585e-17
9.60091e-10
1.45718e-17
9.60091e-10
1.16026e-17
9.39302e-10
9.48591e-18
8.97563e-10
9.27538e-18
8.3467e-10
1.19918e-17
7.50609e-10
1.60428e-17
6.45871e-10
1.80083e-17
5.21848e-10
1.58178e-17
3.81248e-10
4.52299e-18
2.28757e-10
7.26446e-11
3.09182e-17
7.2645e-11
4.31133e-17
2.28757e-10
4.46367e-17
3.81248e-10
4.38401e-17
5.21848e-10
4.2318e-17
6.45871e-10
4.03666e-17
7.50609e-10
3.82746e-17
8.3467e-10
3.61861e-17
8.97563e-10
3.43016e-17
9.39302e-10
3.28836e-17
9.60091e-10
3.21656e-17
9.60091e-10
3.23502e-17
9.39302e-10
3.38787e-17
8.97563e-10
3.71721e-17
8.3467e-10
4.15708e-17
7.50609e-10
4.51058e-17
6.45871e-10
4.16016e-17
5.21848e-10
3.22152e-17
3.81248e-10
1.26339e-17
2.28757e-10
7.26446e-11
1.94057e-17
7.2645e-11
3.36831e-17
2.28757e-10
4.02869e-17
3.81248e-10
4.40491e-17
5.21848e-10
4.62687e-17
6.45871e-10
4.68901e-17
7.50609e-10
4.65796e-17
8.3467e-10
4.59641e-17
8.97563e-10
4.56456e-17
9.39302e-10
4.61641e-17
9.60091e-10
4.79175e-17
9.60091e-10
5.10689e-17
9.39302e-10
5.54649e-17
8.97563e-10
6.08147e-17
8.3467e-10
6.56857e-17
7.50609e-10
6.88543e-17
6.45871e-10
6.52139e-17
5.21848e-10
5.10305e-17
3.81248e-10
2.63663e-17
2.28757e-10
7.26446e-11
6.39006e-18
7.2645e-11
1.82962e-17
2.28757e-10
3.08836e-17
3.81248e-10
4.01264e-17
5.21848e-10
4.68247e-17
6.45871e-10
5.07064e-17
7.50609e-10
5.2644e-17
8.3467e-10
5.36957e-17
8.97563e-10
5.49041e-17
9.39302e-10
5.7173e-17
9.60091e-10
6.10769e-17
9.60091e-10
6.65948e-17
9.39302e-10
7.29159e-17
8.97563e-10
7.87622e-17
8.3467e-10
8.30845e-17
7.50609e-10
8.44601e-17
6.45871e-10
8.37746e-17
5.21848e-10
6.97263e-17
3.81248e-10
4.10831e-17
2.28757e-10
7.26447e-11
-1.62258e-17
7.2645e-11
5.46726e-18
2.28757e-10
2.3534e-17
3.81248e-10
3.74534e-17
5.21848e-10
4.72357e-17
6.45871e-10
5.36418e-17
7.50609e-10
5.73812e-17
8.3467e-10
5.97152e-17
8.97563e-10
6.19695e-17
9.39302e-10
6.53663e-17
9.60091e-10
7.07083e-17
9.60091e-10
7.78677e-17
9.39302e-10
8.54432e-17
8.97563e-10
9.16274e-17
8.3467e-10
9.62627e-17
7.50609e-10
9.70036e-17
6.45871e-10
9.59158e-17
5.21848e-10
8.28122e-17
3.81248e-10
5.35552e-17
2.28757e-10
7.26447e-11
-1.41699e-17
7.2645e-11
1.32794e-17
2.28757e-10
3.13161e-17
3.81248e-10
4.25875e-17
5.21848e-10
5.11864e-17
6.45871e-10
5.75589e-17
7.50609e-10
6.17044e-17
8.3467e-10
6.44569e-17
8.97563e-10
6.69564e-17
9.39302e-10
7.04979e-17
9.60091e-10
7.61772e-17
9.60091e-10
8.37925e-17
9.39302e-10
9.17627e-17
8.97563e-10
9.88719e-17
8.3467e-10
1.05521e-16
7.50609e-10
1.0839e-16
6.45871e-10
1.04835e-16
5.21848e-10
9.06852e-17
3.81248e-10
6.19141e-17
2.28757e-10
7.26448e-11
3.6663e-17
7.2645e-11
4.28364e-17
2.28757e-10
5.18691e-17
3.81248e-10
5.45263e-17
5.21848e-10
5.84432e-17
6.45871e-10
6.25066e-17
7.50609e-10
6.56123e-17
8.3467e-10
6.79324e-17
8.97563e-10
7.00151e-17
9.39302e-10
7.28353e-17
9.60091e-10
7.7728e-17
9.60091e-10
8.44798e-17
9.39302e-10
9.20787e-17
8.97563e-10
9.97736e-17
8.3467e-10
1.07462e-16
7.50609e-10
1.13554e-16
6.45871e-10
1.11431e-16
5.21848e-10
9.79891e-17
3.81248e-10
6.76205e-17
2.28757e-10
7.26449e-11
4.90126e-17
7.26449e-11
5.85323e-17
2.28757e-10
6.29724e-17
3.81248e-10
6.53017e-17
5.21848e-10
6.55811e-17
6.45871e-10
6.68649e-17
7.50609e-10
6.81957e-17
8.3467e-10
6.94491e-17
8.97563e-10
7.08621e-17
9.39302e-10
7.27341e-17
9.60091e-10
7.59542e-17
9.60091e-10
8.0995e-17
9.39302e-10
8.76851e-17
8.97563e-10
9.64418e-17
8.3467e-10
1.05645e-16
7.50609e-10
1.14441e-16
6.45871e-10
1.1557e-16
5.21848e-10
1.04719e-16
3.81248e-10
7.17825e-17
2.28757e-10
7.26449e-11
3.42822e-17
7.26449e-11
5.54578e-17
2.28757e-10
6.96043e-17
3.81248e-10
7.3803e-17
5.21848e-10
7.22074e-17
6.45871e-10
7.02081e-17
7.50609e-10
6.88045e-17
8.3467e-10
6.81248e-17
8.97563e-10
6.82592e-17
9.39302e-10
6.90084e-17
9.60091e-10
7.045e-17
9.60091e-10
7.40316e-17
9.39302e-10
8.16427e-17
8.97563e-10
9.27226e-17
8.3467e-10
1.03832e-16
7.50609e-10
1.14273e-16
6.45871e-10
1.17717e-16
5.21848e-10
1.09558e-16
3.81248e-10
7.46554e-17
2.28757e-10
7.2645e-11
9.06344e-18
7.26449e-11
6.05312e-17
2.28757e-10
7.94153e-17
3.81248e-10
8.31692e-17
5.21848e-10
7.92053e-17
6.45871e-10
7.31537e-17
7.50609e-10
6.79339e-17
8.3467e-10
6.41918e-17
8.97563e-10
6.18528e-17
9.39302e-10
6.10269e-17
9.60091e-10
6.16415e-17
9.60091e-10
6.53508e-17
9.39302e-10
7.38794e-17
8.97563e-10
8.69065e-17
8.3467e-10
1.00536e-16
7.50609e-10
1.10791e-16
6.45871e-10
1.15782e-16
5.21848e-10
1.1058e-16
3.81248e-10
7.57932e-17
2.28757e-10
7.26451e-11
5.83427e-17
7.26448e-11
8.76671e-17
2.28757e-10
9.61243e-17
3.81248e-10
9.32931e-17
5.21848e-10
8.52046e-17
6.45871e-10
7.506e-17
7.50609e-10
6.61008e-17
8.3467e-10
5.91907e-17
8.97563e-10
5.43387e-17
9.39302e-10
5.16647e-17
9.60091e-10
5.16656e-17
9.60091e-10
5.53872e-17
9.39302e-10
6.25825e-17
8.97563e-10
7.46387e-17
8.3467e-10
9.07193e-17
7.50609e-10
1.01675e-16
6.45871e-10
1.07885e-16
5.21848e-10
1.04696e-16
3.81248e-10
7.27226e-17
2.28757e-10
7.26452e-11
7.45893e-17
7.26447e-11
1.02554e-16
2.28757e-10
1.07315e-16
3.81248e-10
9.75168e-17
5.21848e-10
8.57647e-17
6.45871e-10
7.35227e-17
7.50609e-10
6.26895e-17
8.3467e-10
5.41829e-17
8.97563e-10
4.82623e-17
9.39302e-10
4.50273e-17
9.60091e-10
4.4973e-17
9.60091e-10
4.72091e-17
9.39302e-10
5.16249e-17
8.97563e-10
6.1012e-17
8.3467e-10
7.43713e-17
7.50608e-10
8.50274e-17
6.45871e-10
9.13686e-17
5.21848e-10
8.76864e-17
3.81248e-10
6.10313e-17
2.28757e-10
7.26452e-11
1.05224e-16
7.26446e-11
1.07893e-16
2.28757e-10
1.05449e-16
3.81248e-10
9.11758e-17
5.21848e-10
7.78114e-17
6.45871e-10
6.62568e-17
7.50609e-10
5.62315e-17
8.3467e-10
4.83995e-17
8.97563e-10
4.32929e-17
9.39302e-10
4.10489e-17
9.60091e-10
4.07386e-17
9.60091e-10
4.03792e-17
9.39302e-10
4.27487e-17
8.97563e-10
4.89549e-17
8.3467e-10
5.49492e-17
7.50608e-10
6.17927e-17
6.45871e-10
6.57984e-17
5.21848e-10
5.85466e-17
3.81248e-10
3.69982e-17
2.28757e-10
7.26453e-11
5.86283e-17
7.26446e-11
5.98427e-17
2.28757e-10
7.02226e-17
3.81248e-10
6.8295e-17
5.21848e-10
5.94246e-17
6.45871e-10
5.19762e-17
7.50609e-10
4.52455e-17
8.3467e-10
3.97575e-17
8.97563e-10
3.64112e-17
9.39302e-10
3.48892e-17
9.60091e-10
3.26699e-17
9.60091e-10
2.98264e-17
9.39302e-10
2.97436e-17
8.97563e-10
3.09535e-17
8.3467e-10
3.23476e-17
7.50608e-10
3.53415e-17
6.45871e-10
3.59463e-17
5.21848e-10
2.84648e-17
3.81248e-10
1.17631e-17
2.28757e-10
7.26453e-11
-3.93729e-17
7.26446e-11
-2.8596e-18
2.28757e-10
1.89657e-17
3.81248e-10
3.48073e-17
5.21848e-10
3.6301e-17
6.45871e-10
3.3687e-17
7.50609e-10
3.04059e-17
8.3467e-10
2.7098e-17
8.97563e-10
2.44993e-17
9.39302e-10
2.15116e-17
9.60091e-10
1.66978e-17
9.60091e-10
1.25066e-17
9.39302e-10
9.68802e-18
8.97563e-10
6.98124e-18
8.3467e-10
4.79239e-18
7.50608e-10
3.59242e-18
6.45871e-10
2.55404e-18
5.21848e-10
2.50018e-18
3.81248e-10
4.60774e-18
2.28757e-10
7.26453e-11
-2.48781e-17
7.26446e-11
-2.02649e-17
2.28757e-10
-8.73219e-18
3.81248e-10
7.18465e-18
5.21848e-10
1.56137e-17
6.45871e-10
1.57233e-17
7.50609e-10
1.35252e-17
8.3467e-10
1.05763e-17
8.97563e-10
6.60739e-18
9.39302e-10
9.87773e-19
9.60091e-10
-5.3678e-18
9.60091e-10
-1.09508e-17
9.39302e-10
-1.65723e-17
8.97563e-10
-2.31917e-17
8.3467e-10
-3.03183e-17
7.50608e-10
-3.67359e-17
6.45871e-10
-4.04458e-17
5.21848e-10
-3.37727e-17
3.81248e-10
-1.25749e-17
2.28757e-10
7.26453e-11
-8.98322e-18
7.26446e-11
-1.81157e-17
2.28757e-10
-1.95949e-17
3.81248e-10
-1.11698e-17
5.21848e-10
-3.73116e-18
6.45871e-10
-2.24673e-18
7.50609e-10
-4.53241e-18
8.3467e-10
-8.83943e-18
8.97563e-10
-1.51806e-17
9.39302e-10
-2.28194e-17
9.60091e-10
-3.0379e-17
9.60091e-10
-3.82434e-17
9.39302e-10
-4.75677e-17
8.97563e-10
-5.91186e-17
8.3467e-10
-7.22003e-17
7.50609e-10
-8.47201e-17
6.45871e-10
-9.4463e-17
5.21848e-10
-8.7828e-17
3.81248e-10
-5.68682e-17
2.28757e-10
7.26452e-11
-3.85555e-18
7.26446e-11
-1.90457e-17
2.28757e-10
-2.81622e-17
3.81248e-10
-2.72679e-17
5.21848e-10
-2.36143e-17
6.45871e-10
-2.23536e-17
7.50609e-10
-2.44169e-17
8.3467e-10
-2.93374e-17
8.97563e-10
-3.66427e-17
9.39302e-10
-4.56319e-17
9.60091e-10
-5.54761e-17
9.60091e-10
-6.66971e-17
9.39302e-10
-8.04416e-17
8.97563e-10
-9.7249e-17
8.3467e-10
-1.15895e-16
7.50609e-10
-1.328e-16
6.45871e-10
-1.4483e-16
5.21848e-10
-1.39239e-16
3.81248e-10
-9.43154e-17
2.28757e-10
7.26451e-11
-6.67246e-18
7.26447e-11
-2.64735e-17
2.28757e-10
-4.04276e-17
3.81248e-10
-4.44031e-17
5.21848e-10
-4.35783e-17
6.45871e-10
-4.28099e-17
7.50609e-10
-4.44522e-17
8.3467e-10
-4.91611e-17
8.97563e-10
-5.67835e-17
9.39302e-10
-6.67752e-17
9.60091e-10
-7.88647e-17
9.60091e-10
-9.34917e-17
9.39302e-10
-1.1148e-16
8.97563e-10
-1.32948e-16
8.3467e-10
-1.56309e-16
7.50609e-10
-1.77926e-16
6.45871e-10
-1.88791e-16
5.21848e-10
-1.83913e-16
3.81248e-10
-1.4168e-16
2.28757e-10
7.2645e-11
-1.66342e-17
7.26447e-11
-4.02243e-17
2.28757e-10
-5.64394e-17
3.81248e-10
-6.26646e-17
5.21848e-10
-6.29484e-17
6.45871e-10
-6.202e-17
7.50609e-10
-6.28873e-17
8.3467e-10
-6.68605e-17
8.97563e-10
-7.42479e-17
9.39302e-10
-8.48405e-17
9.60091e-10
-9.84921e-17
9.60091e-10
-1.15488e-16
9.39302e-10
-1.36216e-16
8.97563e-10
-1.60375e-16
8.3467e-10
-1.86081e-16
7.50609e-10
-2.08712e-16
6.45871e-10
-2.17793e-16
5.21848e-10
-2.02998e-16
3.81248e-10
-1.37151e-16
2.28757e-10
7.26448e-11
-3.08317e-17
7.26447e-11
-5.7446e-17
2.28757e-10
-7.36872e-17
3.81248e-10
-8.01237e-17
5.21848e-10
-8.01965e-17
6.45871e-10
-7.84851e-17
7.50609e-10
-7.82896e-17
8.3467e-10
-8.1249e-17
8.97563e-10
-8.79203e-17
9.39302e-10
-9.82668e-17
9.60091e-10
-1.12148e-16
9.60091e-10
-1.29579e-16
9.39302e-10
-1.50516e-16
8.97563e-10
-1.74264e-16
8.3467e-10
-1.98713e-16
7.50609e-10
-2.19039e-16
6.45871e-10
-2.2557e-16
5.21848e-10
-2.02193e-16
3.81248e-10
-1.37253e-16
2.28757e-10
7.26447e-11
-4.56857e-17
7.26447e-11
-7.41521e-17
2.28757e-10
-8.91956e-17
3.81248e-10
-9.43731e-17
5.21848e-10
-9.34843e-17
6.45871e-10
-9.07826e-17
7.50609e-10
-8.9449e-17
8.3467e-10
-9.11799e-17
8.97563e-10
-9.65788e-17
9.39302e-10
-1.05608e-16
9.60091e-10
-1.18019e-16
9.60091e-10
-1.33529e-16
9.39302e-10
-1.51618e-16
8.97563e-10
-1.7097e-16
8.3467e-10
-1.8888e-16
7.50609e-10
-2.00583e-16
6.45871e-10
-1.95181e-16
5.21848e-10
-1.66611e-16
3.81248e-10
-1.12052e-16
2.28757e-10
7.26446e-11
-5.84891e-17
7.26448e-11
-8.77356e-17
2.28757e-10
-1.00899e-16
3.81248e-10
-1.03867e-16
5.21848e-10
-1.01615e-16
6.45871e-10
-9.78901e-17
7.50609e-10
-9.54308e-17
8.3467e-10
-9.57653e-17
8.97563e-10
-9.93602e-17
9.39302e-10
-1.06057e-16
9.60091e-10
-1.1545e-16
9.60091e-10
-1.26967e-16
9.39302e-10
-1.39587e-16
8.97563e-10
-1.51266e-16
8.3467e-10
-1.58431e-16
7.50609e-10
-1.56416e-16
6.45871e-10
-1.39691e-16
5.21848e-10
-1.06204e-16
3.81248e-10
-5.44562e-17
2.28757e-10
7.26445e-11
-6.80418e-17
7.26449e-11
-9.70231e-17
2.28757e-10
-1.07997e-16
3.81248e-10
-1.08319e-16
5.21848e-10
-1.04375e-16
6.45871e-10
-9.95106e-17
7.50609e-10
-9.59067e-17
8.3467e-10
-9.47474e-17
8.97563e-10
-9.62058e-17
9.39302e-10
-9.99377e-17
9.60091e-10
-1.05378e-16
9.60091e-10
-1.11734e-16
9.39302e-10
-1.1768e-16
8.97563e-10
-1.20923e-16
8.3467e-10
-1.18155e-16
7.50609e-10
-1.0642e-16
6.45871e-10
-8.46764e-17
5.21848e-10
-5.43227e-17
3.81248e-10
-2.2121e-17
2.28757e-10
7.26445e-11
-7.33382e-17
7.26449e-11
-1.01215e-16
2.28757e-10
-1.10034e-16
3.81248e-10
-1.07956e-16
5.21848e-10
-1.02169e-16
6.45871e-10
-9.60285e-17
7.50609e-10
-9.12853e-17
8.3467e-10
-8.86677e-17
8.97563e-10
-8.79649e-17
9.39302e-10
-8.86162e-17
9.60091e-10
-8.99035e-17
9.60091e-10
-9.09076e-17
9.39302e-10
-9.02913e-17
8.97563e-10
-8.61509e-17
8.3467e-10
-7.63851e-17
7.50609e-10
-5.97589e-17
6.45871e-10
-3.82152e-17
5.21848e-10
-1.71844e-17
3.81248e-10
-8.19815e-18
2.28757e-10
7.26445e-11
-7.20296e-17
7.2645e-11
-9.91731e-17
2.28757e-10
-1.06055e-16
3.81248e-10
-1.02468e-16
5.21848e-10
-9.52534e-17
6.45871e-10
-8.80366e-17
7.50609e-10
-8.23739e-17
8.3467e-10
-7.85252e-17
8.97563e-10
-7.59271e-17
9.39302e-10
-7.38135e-17
9.60091e-10
-7.13286e-17
9.60091e-10
-6.75153e-17
9.39302e-10
-6.12523e-17
8.97563e-10
-5.13452e-17
8.3467e-10
-3.69406e-17
7.50609e-10
-1.80316e-17
6.45871e-10
1.35302e-18
5.21848e-10
1.50288e-17
3.81248e-10
1.28625e-17
2.28757e-10
7.26445e-11
-6.45034e-17
7.26451e-11
-9.02088e-17
2.28757e-10
-9.49349e-17
3.81248e-10
-9.08671e-17
5.21848e-10
-8.3306e-17
6.45871e-10
-7.58061e-17
7.50609e-10
-6.97937e-17
8.3467e-10
-6.51606e-17
8.97563e-10
-6.11411e-17
9.39302e-10
-5.68451e-17
9.60091e-10
-5.13384e-17
9.60091e-10
-4.37235e-17
9.39302e-10
-3.32226e-17
8.97563e-10
-1.93478e-17
8.3467e-10
-2.21897e-18
7.50609e-10
1.70642e-17
6.45871e-10
3.38502e-17
5.21848e-10
4.19454e-17
3.81248e-10
3.45473e-17
2.28757e-10
7.26445e-11
-5.25785e-17
7.26451e-11
-7.44701e-17
2.28757e-10
-7.59184e-17
3.81248e-10
-7.20233e-17
5.21848e-10
-6.56117e-17
6.45871e-10
-5.91515e-17
7.50609e-10
-5.36989e-17
8.3467e-10
-4.89469e-17
8.97563e-10
-4.41365e-17
9.39302e-10
-3.83957e-17
9.60091e-10
-3.08362e-17
9.60091e-10
-2.07172e-17
9.39302e-10
-7.62365e-18
8.97563e-10
8.24016e-18
8.3467e-10
2.59571e-17
7.50609e-10
4.33343e-17
6.45871e-10
5.55377e-17
5.21848e-10
5.6518e-17
3.81248e-10
4.44655e-17
2.28757e-10
7.26446e-11
-3.56806e-17
7.26452e-11
-4.97534e-17
2.28757e-10
-4.82566e-17
3.81248e-10
-4.53702e-17
5.21848e-10
-4.17275e-17
6.45871e-10
-3.78321e-17
7.50609e-10
-3.40329e-17
8.3467e-10
-3.00008e-17
8.97563e-10
-2.51763e-17
9.39302e-10
-1.88605e-17
9.60091e-10
-1.03353e-17
9.60091e-10
9.07269e-19
9.39302e-10
1.48718e-17
8.97563e-10
3.07302e-17
8.3467e-10
4.6794e-17
7.50609e-10
5.98907e-17
6.45871e-10
6.48981e-17
5.21848e-10
5.67765e-17
3.81248e-10
3.78068e-17
2.28757e-10
7.26446e-11
-1.13701e-17
7.26452e-11
-1.5531e-17
2.28757e-10
-1.29991e-17
3.81248e-10
-1.20627e-17
5.21848e-10
-1.23766e-17
6.45871e-10
-1.22387e-17
7.50609e-10
-1.10881e-17
8.3467e-10
-8.66084e-18
8.97563e-10
-4.68733e-18
9.39302e-10
1.26055e-18
9.60091e-10
9.6336e-18
9.60091e-10
2.06457e-17
9.39302e-10
3.38905e-17
8.97563e-10
4.80657e-17
8.3467e-10
6.07881e-17
7.50609e-10
6.8062e-17
6.45871e-10
6.47295e-17
5.21848e-10
4.72435e-17
3.81248e-10
2.06186e-17
2.28757e-10
7.26447e-11
1.92336e-17
7.26452e-11
2.45161e-17
2.28757e-10
2.67907e-17
3.81248e-10
2.50028e-17
5.21848e-10
2.03323e-17
6.45871e-10
1.62102e-17
7.50609e-10
1.40782e-17
8.3467e-10
1.41786e-17
8.97563e-10
1.65151e-17
9.39302e-10
2.12162e-17
9.60091e-10
2.84283e-17
9.60091e-10
3.80646e-17
9.39302e-10
4.94154e-17
8.97563e-10
6.08258e-17
8.3467e-10
6.94844e-17
7.50609e-10
7.11636e-17
6.45871e-10
6.12659e-17
5.21848e-10
3.75745e-17
3.81248e-10
6.44573e-18
2.28757e-10
7.26447e-11
4.60925e-17
7.26451e-11
6.44501e-17
2.28757e-10
6.73087e-17
3.81248e-10
6.22553e-17
5.21848e-10
5.34234e-17
6.45871e-10
4.52089e-17
7.50609e-10
3.96507e-17
8.3467e-10
3.70642e-17
8.97563e-10
3.72637e-17
9.39302e-10
4.01033e-17
9.60091e-10
4.54594e-17
9.60091e-10
5.29972e-17
9.39302e-10
6.17949e-17
8.97563e-10
7.00697e-17
8.3467e-10
7.50697e-17
7.50609e-10
7.31139e-17
6.45871e-10
6.08478e-17
5.21848e-10
3.65323e-17
3.81248e-10
6.0974e-18
2.28757e-10
7.26447e-11
7.03817e-17
7.2645e-11
1.02123e-16
2.28757e-10
1.05189e-16
3.81248e-10
9.62395e-17
5.21848e-10
8.36719e-17
6.45871e-10
7.19992e-17
7.50609e-10
6.33904e-17
8.3467e-10
5.82443e-17
8.97563e-10
5.62452e-17
9.39302e-10
5.70428e-17
9.60091e-10
6.03048e-17
9.60091e-10
6.5511e-17
9.39302e-10
7.16481e-17
8.97563e-10
7.70843e-17
8.3467e-10
7.96339e-17
7.50609e-10
7.67319e-17
6.45871e-10
6.64657e-17
5.21848e-10
4.68673e-17
3.81248e-10
2.10273e-17
2.28757e-10
7.26447e-11
9.75543e-17
7.2645e-11
1.33542e-16
2.28757e-10
1.35348e-16
3.81248e-10
1.23064e-16
5.21848e-10
1.07825e-16
6.45871e-10
9.38468e-17
7.50609e-10
8.31101e-17
8.3467e-10
7.60425e-17
8.97563e-10
7.22546e-17
9.39302e-10
7.12849e-17
9.60091e-10
7.26646e-17
9.60091e-10
7.57588e-17
9.39302e-10
7.95931e-17
8.97563e-10
8.29127e-17
8.3467e-10
8.43544e-17
7.50609e-10
8.25189e-17
6.45871e-10
7.63617e-17
5.21848e-10
6.35486e-17
3.81248e-10
4.27609e-17
2.28757e-10
7.26447e-11
1.03249e-16
7.26448e-11
1.47027e-16
2.28757e-10
1.50434e-16
3.81248e-10
1.38424e-16
5.21848e-10
1.23012e-16
6.45871e-10
1.08591e-16
7.50609e-10
9.71461e-17
8.3467e-10
8.91813e-17
8.97563e-10
8.43693e-17
9.39302e-10
8.22406e-17
9.60091e-10
8.22635e-17
9.60091e-10
8.37676e-17
9.39302e-10
8.59242e-17
8.97563e-10
8.79381e-17
8.3467e-10
8.91527e-17
7.50609e-10
8.88476e-17
6.45871e-10
8.59519e-17
5.21848e-10
7.79996e-17
3.81248e-10
5.88754e-17
2.28757e-10
7.26448e-11
1.04382e-16
7.26447e-11
1.42968e-16
2.28757e-10
1.49751e-16
3.81248e-10
1.40838e-16
5.21848e-10
1.27771e-16
6.45871e-10
1.15019e-16
7.50609e-10
1.04494e-16
8.3467e-10
9.68367e-17
8.97563e-10
9.19352e-17
9.39302e-10
8.94067e-17
9.60091e-10
8.87301e-17
9.60091e-10
8.92842e-17
9.39302e-10
9.04547e-17
8.97563e-10
9.18317e-17
8.3467e-10
9.30804e-17
7.50609e-10
9.34733e-17
6.45871e-10
9.13218e-17
5.21848e-10
8.41959e-17
3.81248e-10
6.27349e-17
2.28757e-10
7.26449e-11
9.04094e-17
7.26447e-11
1.21666e-16
2.28757e-10
1.32331e-16
3.81248e-10
1.29246e-16
5.21848e-10
1.21178e-16
6.45871e-10
1.12295e-16
7.50609e-10
1.04397e-16
8.3467e-10
9.83347e-17
8.97563e-10
9.43359e-17
9.39302e-10
9.21992e-17
9.60091e-10
9.15011e-17
9.60091e-10
9.17571e-17
9.39302e-10
9.25994e-17
8.97563e-10
9.38366e-17
8.3467e-10
9.50586e-17
7.50609e-10
9.51038e-17
6.45871e-10
9.16729e-17
5.21848e-10
8.2194e-17
3.81248e-10
5.65481e-17
2.28757e-10
7.26449e-11
6.35276e-17
7.26446e-11
8.37131e-17
2.28757e-10
9.70905e-17
3.81248e-10
1.02285e-16
5.21848e-10
1.02158e-16
6.45871e-10
9.95138e-17
7.50609e-10
9.60474e-17
8.3467e-10
9.29421e-17
8.97563e-10
9.0876e-17
9.39302e-10
8.99386e-17
9.60091e-10
8.99026e-17
9.60091e-10
9.05022e-17
9.39302e-10
9.16136e-17
8.97563e-10
9.31108e-17
8.3467e-10
9.43488e-17
7.50609e-10
9.38111e-17
6.45871e-10
8.90876e-17
5.21848e-10
7.73411e-17
3.81248e-10
4.89989e-17
2.28757e-10
7.2645e-11
2.22862e-17
7.26446e-11
3.03442e-17
2.28757e-10
4.6216e-17
3.81248e-10
6.11527e-17
5.21848e-10
7.11899e-17
6.45871e-10
7.66841e-17
7.50609e-10
7.92016e-17
8.3467e-10
8.03238e-17
8.97563e-10
8.11838e-17
9.39302e-10
8.22248e-17
9.60091e-10
8.35023e-17
9.60091e-10
8.50182e-17
9.39302e-10
8.68585e-17
8.97563e-10
8.89231e-17
8.3467e-10
9.04983e-17
7.50609e-10
9.02002e-17
6.45871e-10
8.60985e-17
5.21848e-10
7.51667e-17
3.81248e-10
4.81864e-17
2.28757e-10
7.2645e-11
-2.66664e-17
7.26446e-11
-2.68594e-17
2.28757e-10
-1.05238e-17
3.81248e-10
1.24194e-17
5.21848e-10
3.22617e-17
6.45871e-10
4.62264e-17
7.50609e-10
5.5388e-17
8.3467e-10
6.14877e-17
8.97563e-10
6.59349e-17
9.39302e-10
6.94921e-17
9.60091e-10
7.25124e-17
9.60091e-10
7.52529e-17
9.39302e-10
7.79788e-17
8.97563e-10
8.07227e-17
8.3467e-10
8.30793e-17
7.50609e-10
8.43568e-17
6.45871e-10
8.34261e-17
5.21848e-10
7.72657e-17
3.81248e-10
5.53859e-17
2.28757e-10
7.26451e-11
-7.00797e-17
7.26447e-11
-7.63411e-17
2.28757e-10
-6.0704e-17
3.81248e-10
-3.37403e-17
5.21848e-10
-7.44761e-18
6.45871e-10
1.3267e-17
7.50609e-10
2.83394e-17
8.3467e-10
3.91516e-17
8.97563e-10
4.71106e-17
9.39302e-10
5.31473e-17
9.60091e-10
5.78293e-17
9.60091e-10
6.16187e-17
9.39302e-10
6.49669e-17
8.97563e-10
6.82128e-17
8.3467e-10
7.1583e-17
7.50609e-10
7.53003e-17
6.45871e-10
7.89341e-17
5.21848e-10
7.94792e-17
3.81248e-10
6.39254e-17
2.28757e-10
7.26451e-11
-9.70114e-17
7.26448e-11
-1.07466e-16
2.28757e-10
-9.37075e-17
3.81248e-10
-6.74212e-17
5.21848e-10
-3.97226e-17
6.45871e-10
-1.59054e-17
7.50609e-10
2.76064e-18
8.3467e-10
1.68364e-17
8.97563e-10
2.72955e-17
9.39302e-10
3.5022e-17
9.60091e-10
4.06711e-17
9.60091e-10
4.48593e-17
9.39302e-10
4.82538e-17
8.97563e-10
5.16053e-17
8.3467e-10
5.57733e-17
7.50608e-10
6.15535e-17
6.45871e-10
6.87748e-17
5.21848e-10
7.45869e-17
3.81248e-10
6.40456e-17
2.28757e-10
7.26452e-11
-9.86741e-17
7.26449e-11
-1.12452e-16
2.28757e-10
-1.03932e-16
3.81248e-10
-8.31257e-17
5.21848e-10
-5.90369e-17
6.45871e-10
-3.65514e-17
7.50609e-10
-1.76279e-17
8.3467e-10
-2.67079e-18
8.97563e-10
8.57534e-18
9.39302e-10
1.6669e-17
9.60091e-10
2.22413e-17
9.60091e-10
2.60296e-17
9.39302e-10
2.89209e-17
8.97563e-10
3.19883e-17
8.3467e-10
3.63315e-17
7.50608e-10
4.26159e-17
6.45871e-10
5.04014e-17
5.21848e-10
5.71293e-17
3.81248e-10
4.94894e-17
2.28757e-10
7.26452e-11
-7.57403e-17
7.26449e-11
-9.42352e-17
2.28757e-10
-9.28854e-17
3.81248e-10
-8.15134e-17
5.21848e-10
-6.49496e-17
6.45871e-10
-4.74572e-17
7.50609e-10
-3.14301e-17
8.3467e-10
-1.81119e-17
8.97563e-10
-7.94881e-18
9.39302e-10
-8.36351e-19
9.60091e-10
3.74831e-18
9.60091e-10
6.61352e-18
9.39302e-10
8.77809e-18
8.97563e-10
1.1335e-17
8.3467e-10
1.50697e-17
7.50608e-10
2.00306e-17
6.45871e-10
2.52236e-17
5.21848e-10
2.83442e-17
3.81248e-10
2.21726e-17
2.28757e-10
7.26453e-11
-3.84184e-17
7.2645e-11
-5.89359e-17
2.28757e-10
-6.76023e-17
3.81248e-10
-6.77579e-17
5.21848e-10
-6.08834e-17
6.45871e-10
-5.05151e-17
7.50608e-10
-3.9446e-17
8.3467e-10
-2.95595e-17
8.97563e-10
-2.18791e-17
9.39302e-10
-1.66452e-17
9.60091e-10
-1.34744e-17
9.60091e-10
-1.15975e-17
9.39302e-10
-1.00877e-17
8.97563e-10
-8.20721e-18
8.3467e-10
-5.82412e-18
7.50608e-10
-3.49996e-18
6.45871e-10
-2.3881e-18
5.21848e-10
-4.55311e-18
3.81248e-10
-9.43263e-18
2.28757e-10
7.26453e-11
-3.42008e-18
7.2645e-11
-2.46832e-17
2.28757e-10
-4.0241e-17
3.81248e-10
-5.01133e-17
5.21848e-10
-5.23092e-17
6.45871e-10
-4.91615e-17
7.50608e-10
-4.36088e-17
8.3467e-10
-3.78393e-17
8.97563e-10
-3.3156e-17
9.39302e-10
-2.99986e-17
9.60091e-10
-2.81416e-17
9.60091e-10
-2.70285e-17
9.39302e-10
-2.60955e-17
8.97563e-10
-2.51605e-17
8.3467e-10
-2.46192e-17
7.50608e-10
-2.5208e-17
6.45871e-10
-2.76548e-17
5.21848e-10
-3.27226e-17
3.81248e-10
-3.3733e-17
2.28757e-10
7.26452e-11
1.60543e-17
7.2645e-11
-2.52014e-18
2.28757e-10
-2.13273e-17
3.81248e-10
-3.63304e-17
5.21848e-10
-4.45076e-17
6.45871e-10
-4.6887e-17
7.50608e-10
-4.6005e-17
8.3467e-10
-4.39034e-17
8.97563e-10
-4.1838e-17
9.39302e-10
-4.03356e-17
9.60091e-10
-3.94078e-17
9.60091e-10
-3.88818e-17
9.39302e-10
-3.86832e-17
8.97563e-10
-3.90564e-17
8.3467e-10
-4.04705e-17
7.50608e-10
-4.32167e-17
6.45871e-10
-4.75211e-17
5.21848e-10
-5.18852e-17
3.81248e-10
-4.64378e-17
2.28757e-10
7.26452e-11
1.48339e-17
7.26449e-11
3.09982e-20
2.28757e-10
-1.69419e-17
3.81248e-10
-3.13924e-17
5.21848e-10
-4.10745e-17
6.45871e-10
-4.61009e-17
7.50608e-10
-4.80167e-17
8.3467e-10
-4.82743e-17
8.97563e-10
-4.78621e-17
9.39302e-10
-4.73552e-17
9.60091e-10
-4.70682e-17