/*--------------------------------*- C++ -*----------------------------------*\
| =========                 |                                                 |
| \\      /  F ield         | OpenFOAM: The Open Source CFD Toolbox           |
|  \\    /   O peration     | Version:  5.x                                   |
|   \\  /    A nd           | Web:      www.OpenFOAM.org                      |
|    \\/     M anipulation  |                                                 |
\*---------------------------------------------------------------------------*/
FoamFile
{
    version     2.0;
    format      ascii;
    class       volScalarField;
    location    "0.3";
    object      p_rgh;
}
// * * * * * * * * * * * * * * * * * * * * * * * * * * * * * * * * * * * * * //

dimensions      [1 -1 -2 0 0 0 0];

internalField   nonuniform List<scalar> 
8000
(
0.00387517
0.00387521
0.00387525
0.00387529
0.00387532
0.00387535
0.00387537
0.00387539
0.0038754
0.00387541
0.00387541
0.0038754
0.00387539
0.00387538
0.00387535
0.00387533
0.00387529
0.00387525
0.00387521
0.00387519
0.011626
0.011626
0.0116261
0.0116261
0.0116261
0.0116262
0.0116262
0.0116262
0.0116262
0.0116263
0.0116263
0.0116263
0.0116262
0.0116262
0.0116262
0.0116262
0.0116261
0.0116261
0.011626
0.011626
0.019377
0.019377
0.019377
0.0193771
0.0193771
0.0193771
0.0193771
0.0193771
0.0193771
0.0193771
0.0193771
0.0193771
0.0193772
0.0193772
0.0193771
0.0193771
0.0193771
0.0193771
0.0193771
0.0193772
0.027128
0.027128
0.027128
0.027128
0.027128
0.027128
0.027128
0.027128
0.0271281
0.0271281
0.0271281
0.0271281
0.0271281
0.0271281
0.0271281
0.0271281
0.0271281
0.0271281
0.0271281
0.0271284
0.0348789
0.034879
0.034879
0.034879
0.034879
0.034879
0.034879
0.034879
0.034879
0.034879
0.034879
0.034879
0.0348791
0.0348791
0.0348791
0.0348791
0.0348791
0.0348791
0.0348791
0.0348796
0.0426298
0.04263
0.04263
0.04263
0.04263
0.04263
0.04263
0.04263
0.04263
0.04263
0.04263
0.0426301
0.0426301
0.0426301
0.0426301
0.0426302
0.0426302
0.0426302
0.0426301
0.0426305
0.0503808
0.050381
0.050381
0.050381
0.050381
0.050381
0.050381
0.050381
0.050381
0.0503811
0.0503811
0.0503811
0.0503811
0.0503811
0.0503812
0.0503812
0.0503812
0.0503812
0.0503812
0.0503812
0.0581318
0.058132
0.0581321
0.0581321
0.0581321
0.0581321
0.0581321
0.0581321
0.0581321
0.0581321
0.0581321
0.0581322
0.0581322
0.0581322
0.0581322
0.0581322
0.0581322
0.0581322
0.0581323
0.058132
0.0658829
0.0658831
0.0658831
0.0658831
0.0658831
0.0658832
0.0658832
0.0658832
0.0658832
0.0658832
0.0658832
0.0658832
0.0658832
0.0658832
0.0658832
0.0658832
0.0658832
0.0658832
0.0658833
0.0658828
0.0736341
0.0736342
0.0736342
0.0736342
0.0736342
0.0736342
0.0736343
0.0736343
0.0736343
0.0736343
0.0736343
0.0736343
0.0736343
0.0736343
0.0736342
0.0736342
0.0736342
0.0736342
0.0736343
0.0736336
0.0813853
0.0813853
0.0813853
0.0813853
0.0813853
0.0813853
0.0813854
0.0813854
0.0813854
0.0813854
0.0813854
0.0813853
0.0813853
0.0813853
0.0813852
0.0813852
0.0813852
0.0813852
0.0813853
0.0813845
0.0891364
0.0891364
0.0891364
0.0891364
0.0891364
0.0891364
0.0891364
0.0891364
0.0891364
0.0891364
0.0891364
0.0891364
0.0891363
0.0891363
0.0891363
0.0891362
0.0891362
0.0891362
0.0891362
0.0891356
0.0968875
0.0968874
0.0968874
0.0968875
0.0968875
0.0968875
0.0968875
0.0968875
0.0968875
0.0968875
0.0968874
0.0968874
0.0968874
0.0968873
0.0968873
0.0968872
0.0968872
0.0968872
0.0968871
0.0968868
0.104638
0.104638
0.104638
0.104638
0.104638
0.104638
0.104638
0.104638
0.104638
0.104638
0.104638
0.104638
0.104638
0.104638
0.104638
0.104638
0.104638
0.104638
0.104638
0.104638
0.112389
0.11239
0.11239
0.11239
0.11239
0.11239
0.11239
0.11239
0.112389
0.112389
0.112389
0.112389
0.112389
0.112389
0.112389
0.112389
0.112389
0.112389
0.112389
0.112389
0.12014
0.120141
0.120141
0.120141
0.120141
0.120141
0.120141
0.120141
0.120141
0.12014
0.12014
0.12014
0.12014
0.12014
0.12014
0.12014
0.12014
0.12014
0.12014
0.12014
0.127891
0.127892
0.127892
0.127892
0.127892
0.127892
0.127892
0.127892
0.127892
0.127892
0.127892
0.127891
0.127891
0.127891
0.127891
0.127891
0.127891
0.127891
0.127891
0.127891
0.135642
0.135643
0.135643
0.135643
0.135643
0.135643
0.135643
0.135643
0.135643
0.135643
0.135643
0.135643
0.135643
0.135642
0.135642
0.135642
0.135642
0.135642
0.135642
0.135643
0.143394
0.143394
0.143394
0.143394
0.143394
0.143394
0.143394
0.143394
0.143394
0.143394
0.143394
0.143394
0.143394
0.143394
0.143393
0.143393
0.143393
0.143393
0.143394
0.143394
0.151145
0.151145
0.151145
0.151145
0.151145
0.151145
0.151145
0.151145
0.151145
0.151145
0.151145
0.151145
0.151145
0.151145
0.151145
0.151145
0.151144
0.151145
0.151145
0.151145
0.158897
0.158896
0.158896
0.158896
0.158896
0.158896
0.158896
0.158896
0.158896
0.158896
0.158896
0.158896
0.158896
0.158896
0.158896
0.158896
0.158896
0.158896
0.158896
0.158897
0.166648
0.166647
0.166647
0.166647
0.166647
0.166647
0.166647
0.166647
0.166647
0.166647
0.166647
0.166647
0.166647
0.166647
0.166647
0.166647
0.166647
0.166647
0.166647
0.166648
0.174399
0.174398
0.174398
0.174398
0.174398
0.174398
0.174398
0.174398
0.174398
0.174398
0.174398
0.174398
0.174398
0.174398
0.174398
0.174398
0.174398
0.174398
0.174398
0.174399
0.182149
0.182149
0.182149
0.182149
0.182149
0.182149
0.182149
0.182149
0.182149
0.182149
0.182149
0.182149
0.182149
0.182149
0.182149
0.182149
0.182149
0.182149
0.182149
0.18215
0.1899
0.1899
0.1899
0.1899
0.1899
0.1899
0.1899
0.1899
0.1899
0.1899
0.1899
0.1899
0.1899
0.1899
0.1899
0.1899
0.1899
0.189901
0.189901
0.189901
0.197651
0.197652
0.197651
0.197651
0.197651
0.197651
0.197651
0.197651
0.197651
0.197651
0.197651
0.197651
0.197652
0.197652
0.197652
0.197652
0.197652
0.197652
0.197652
0.197652
0.205402
0.205403
0.205403
0.205403
0.205403
0.205403
0.205403
0.205403
0.205403
0.205403
0.205403
0.205403
0.205403
0.205403
0.205403
0.205403
0.205403
0.205403
0.205403
0.205403
0.213153
0.213154
0.213154
0.213154
0.213154
0.213154
0.213154
0.213154
0.213154
0.213154
0.213154
0.213154
0.213154
0.213154
0.213154
0.213154
0.213154
0.213154
0.213154
0.213154
0.220904
0.220905
0.220905
0.220905
0.220905
0.220905
0.220905
0.220905
0.220905
0.220905
0.220905
0.220905
0.220905
0.220905
0.220905
0.220905
0.220905
0.220905
0.220905
0.220906
0.228656
0.228656
0.228656
0.228656
0.228656
0.228656
0.228656
0.228656
0.228656
0.228656
0.228656
0.228656
0.228656
0.228656
0.228656
0.228657
0.228657
0.228656
0.228656
0.228657
0.236407
0.236407
0.236407
0.236407
0.236407
0.236407
0.236408
0.236408
0.236408
0.236408
0.236408
0.236408
0.236408
0.236408
0.236408
0.236408
0.236408
0.236408
0.236408
0.236408
0.244158
0.244159
0.244159
0.244159
0.244159
0.244159
0.244159
0.244159
0.244159
0.244159
0.244159
0.244159
0.244159
0.244159
0.244159
0.244159
0.244159
0.244159
0.244159
0.244159
0.25191
0.25191
0.25191
0.25191
0.25191
0.25191
0.25191
0.25191
0.25191
0.25191
0.25191
0.25191
0.25191
0.25191
0.25191
0.25191
0.25191
0.25191
0.25191
0.25191
0.259661
0.259661
0.259661
0.259661
0.259661
0.259661
0.259661
0.259661
0.259661
0.259661
0.259661
0.259661
0.259661
0.259661
0.259661
0.259661
0.259661
0.259661
0.259661
0.259661
0.267412
0.267412
0.267412
0.267412
0.267412
0.267412
0.267412
0.267412
0.267412
0.267412
0.267412
0.267412
0.267412
0.267412
0.267412
0.267412
0.267412
0.267412
0.267412
0.267412
0.275163
0.275163
0.275163
0.275163
0.275163
0.275163
0.275163
0.275163
0.275163
0.275163
0.275163
0.275163
0.275163
0.275163
0.275163
0.275163
0.275163
0.275163
0.275163
0.275163
0.282914
0.282914
0.282914
0.282914
0.282914
0.282914
0.282914
0.282914
0.282914
0.282914
0.282914
0.282914
0.282914
0.282914
0.282914
0.282914
0.282914
0.282914
0.282914
0.282914
0.290665
0.290665
0.290665
0.290665
0.290665
0.290665
0.290665
0.290665
0.290665
0.290665
0.290665
0.290665
0.290665
0.290665
0.290665
0.290665
0.290665
0.290665
0.290665
0.290665
0.298417
0.298416
0.298416
0.298416
0.298416
0.298416
0.298416
0.298416
0.298416
0.298416
0.298416
0.298416
0.298416
0.298416
0.298416
0.298416
0.298416
0.298416
0.298416
0.298416
0.306168
0.306167
0.306167
0.306167
0.306167
0.306167
0.306167
0.306167
0.306167
0.306167
0.306167
0.306167
0.306167
0.306167
0.306167
0.306167
0.306167
0.306167
0.306167
0.306167
0.313919
0.313919
0.313918
0.313918
0.313918
0.313918
0.313918
0.313918
0.313918
0.313918
0.313918
0.313918
0.313918
0.313918
0.313918
0.313918
0.313918
0.313918
0.313918
0.313918
0.32167
0.32167
0.32167
0.32167
0.32167
0.321669
0.321669
0.321669
0.321669
0.321669
0.321669
0.321669
0.321669
0.321669
0.321669
0.321669
0.321669
0.321669
0.321669
0.321669
0.329422
0.329421
0.329421
0.329421
0.329421
0.329421
0.329421
0.329421
0.329421
0.329421
0.329421
0.329421
0.329421
0.329421
0.32942
0.32942
0.32942
0.32942
0.329421
0.329421
0.337173
0.337172
0.337172
0.337172
0.337172
0.337172
0.337172
0.337172
0.337172
0.337172
0.337172
0.337172
0.337172
0.337172
0.337172
0.337172
0.337172
0.337172
0.337172
0.337172
0.344924
0.344923
0.344923
0.344923
0.344923
0.344923
0.344923
0.344923
0.344923
0.344923
0.344923
0.344923
0.344923
0.344923
0.344923
0.344923
0.344923
0.344923
0.344923
0.344923
0.352675
0.352674
0.352674
0.352674
0.352674
0.352674
0.352674
0.352674
0.352674
0.352674
0.352674
0.352674
0.352674
0.352674
0.352674
0.352674
0.352674
0.352674
0.352674
0.352675
0.360426
0.360426
0.360426
0.360426
0.360425
0.360425
0.360425
0.360425
0.360425
0.360425
0.360425
0.360425
0.360425
0.360425
0.360425
0.360425
0.360425
0.360426
0.360426
0.360426
0.368177
0.368177
0.368177
0.368177
0.368177
0.368177
0.368177
0.368177
0.368177
0.368177
0.368177
0.368177
0.368177
0.368177
0.368177
0.368177
0.368177
0.368177
0.368177
0.368178
0.375929
0.375928
0.375928
0.375928
0.375928
0.375928
0.375928
0.375928
0.375928
0.375928
0.375928
0.375928
0.375928
0.375928
0.375928
0.375928
0.375928
0.375928
0.375929
0.37593
0.38368
0.38368
0.38368
0.38368
0.38368
0.383679
0.383679
0.383679
0.383679
0.383679
0.383679
0.38368
0.38368
0.38368
0.38368
0.38368
0.38368
0.38368
0.38368
0.383681
0.391431
0.391431
0.391431
0.391431
0.391431
0.391431
0.391431
0.391431
0.391431
0.391431
0.391431
0.391431
0.391431
0.391431
0.391431
0.391432
0.391432
0.391432
0.391432
0.391433
0.399183
0.399183
0.399183
0.399183
0.399183
0.399183
0.399183
0.399183
0.399183
0.399183
0.399183
0.399183
0.399183
0.399183
0.399183
0.399183
0.399183
0.399184
0.399184
0.399185
0.406935
0.406935
0.406935
0.406935
0.406935
0.406935
0.406935
0.406935
0.406935
0.406935
0.406935
0.406935
0.406935
0.406935
0.406935
0.406935
0.406935
0.406936
0.406936
0.406937
0.414687
0.414687
0.414687
0.414687
0.414687
0.414687
0.414687
0.414687
0.414687
0.414687
0.414687
0.414687
0.414687
0.414687
0.414687
0.414687
0.414688
0.414688
0.414688
0.414689
0.42244
0.42244
0.42244
0.42244
0.422439
0.422439
0.422439
0.422439
0.422439
0.422439
0.422439
0.422439
0.422439
0.422439
0.42244
0.42244
0.42244
0.42244
0.42244
0.422442
0.430193
0.430193
0.430192
0.430192
0.430192
0.430192
0.430192
0.430192
0.430192
0.430192
0.430192
0.430192
0.430192
0.430192
0.430192
0.430192
0.430193
0.430193
0.430193
0.430194
0.437946
0.437946
0.437945
0.437945
0.437945
0.437945
0.437945
0.437944
0.437944
0.437944
0.437944
0.437944
0.437945
0.437945
0.437945
0.437945
0.437946
0.437946
0.437946
0.437947
0.4457
0.445699
0.445699
0.445698
0.445698
0.445698
0.445698
0.445698
0.445697
0.445697
0.445697
0.445698
0.445698
0.445698
0.445698
0.445699
0.445699
0.445699
0.445699
0.445701
0.453454
0.453453
0.453452
0.453452
0.453452
0.453451
0.453451
0.453451
0.453451
0.453451
0.453451
0.453451
0.453451
0.453452
0.453452
0.453452
0.453453
0.453453
0.453453
0.453455
0.461208
0.461207
0.461207
0.461206
0.461206
0.461206
0.461205
0.461205
0.461205
0.461205
0.461205
0.461205
0.461206
0.461206
0.461206
0.461207
0.461207
0.461207
0.461208
0.461209
0.468963
0.468962
0.468961
0.468961
0.468961
0.46896
0.46896
0.46896
0.46896
0.46896
0.46896
0.46896
0.46896
0.468961
0.468961
0.468961
0.468962
0.468962
0.468963
0.468964
0.476719
0.476718
0.476717
0.476717
0.476716
0.476716
0.476716
0.476715
0.476715
0.476715
0.476715
0.476716
0.476716
0.476716
0.476717
0.476717
0.476718
0.476718
0.476719
0.47672
0.484475
0.484474
0.484473
0.484473
0.484472
0.484472
0.484472
0.484472
0.484472
0.484472
0.484472
0.484472
0.484472
0.484473
0.484473
0.484474
0.484474
0.484475
0.484476
0.484476
0.492232
0.492231
0.492231
0.49223
0.49223
0.492229
0.492229
0.492229
0.492229
0.492229
0.492229
0.492229
0.492229
0.49223
0.49223
0.492231
0.492232
0.492232
0.492233
0.492234
0.49999
0.499989
0.499989
0.499988
0.499988
0.499988
0.499987
0.499987
0.499987
0.499987
0.499987
0.499987
0.499988
0.499988
0.499989
0.499989
0.49999
0.499991
0.499992
0.499993
0.50775
0.507749
0.507748
0.507748
0.507747
0.507747
0.507747
0.507747
0.507746
0.507746
0.507747
0.507747
0.507747
0.507748
0.507748
0.507749
0.50775
0.507751
0.507751
0.507752
0.51551
0.515509
0.515509
0.515508
0.515508
0.515508
0.515507
0.515507
0.515507
0.515507
0.515507
0.515508
0.515508
0.515508
0.515509
0.51551
0.51551
0.515511
0.515512
0.515513
0.523272
0.523271
0.52327
0.52327
0.52327
0.523269
0.523269
0.523269
0.523269
0.523269
0.523269
0.523269
0.52327
0.52327
0.523271
0.523272
0.523272
0.523273
0.523274
0.523275
0.531035
0.531034
0.531033
0.531033
0.531032
0.531032
0.531032
0.531032
0.531032
0.531032
0.531032
0.531032
0.531033
0.531033
0.531034
0.531034
0.531035
0.531036
0.531037
0.531037
0.538798
0.538797
0.538797
0.538797
0.538796
0.538796
0.538796
0.538796
0.538796
0.538796
0.538796
0.538796
0.538797
0.538797
0.538798
0.538799
0.538799
0.5388
0.538801
0.538801
0.546562
0.546562
0.546562
0.546561
0.546561
0.546561
0.546561
0.546561
0.546561
0.546561
0.546561
0.546562
0.546562
0.546562
0.546563
0.546563
0.546564
0.546565
0.546565
0.546565
0.554327
0.554328
0.554327
0.554327
0.554327
0.554327
0.554327
0.554327
0.554327
0.554327
0.554327
0.554327
0.554328
0.554328
0.554329
0.554329
0.55433
0.55433
0.554331
0.554331
0.562093
0.562094
0.562093
0.562093
0.562093
0.562093
0.562093
0.562093
0.562093
0.562094
0.562094
0.562094
0.562094
0.562095
0.562095
0.562095
0.562096
0.562096
0.562096
0.562096
0.56986
0.56986
0.56986
0.56986
0.56986
0.56986
0.56986
0.56986
0.56986
0.569861
0.569861
0.569861
0.569861
0.569861
0.569862
0.569862
0.569862
0.569862
0.569862
0.569863
0.577626
0.577627
0.577627
0.577627
0.577627
0.577627
0.577627
0.577627
0.577627
0.577628
0.577628
0.577628
0.577628
0.577628
0.577628
0.577628
0.577628
0.577628
0.577629
0.577629
0.585393
0.585393
0.585393
0.585394
0.585394
0.585394
0.585394
0.585394
0.585394
0.585394
0.585394
0.585395
0.585395
0.585395
0.585395
0.585395
0.585395
0.585394
0.585394
0.585395
0.593159
0.593159
0.59316
0.59316
0.59316
0.59316
0.593161
0.593161
0.593161
0.593161
0.593161
0.593161
0.593161
0.593161
0.593161
0.59316
0.59316
0.59316
0.59316
0.59316
0.600925
0.600925
0.600926
0.600926
0.600926
0.600926
0.600926
0.600926
0.600926
0.600926
0.600926
0.600926
0.600926
0.600926
0.600926
0.600926
0.600925
0.600925
0.600925
0.600925
0.608691
0.60869
0.608691
0.608691
0.608691
0.608691
0.608691
0.608691
0.608691
0.608691
0.608691
0.608691
0.608691
0.608691
0.60869
0.60869
0.60869
0.608689
0.608689
0.608689
0.616455
0.616454
0.616455
0.616455
0.616455
0.616455
0.616455
0.616455
0.616455
0.616455
0.616455
0.616455
0.616455
0.616454
0.616454
0.616454
0.616453
0.616453
0.616452
0.616452
0.624218
0.624218
0.624218
0.624218
0.624218
0.624218
0.624218
0.624218
0.624218
0.624218
0.624218
0.624218
0.624218
0.624217
0.624217
0.624217
0.624216
0.624216
0.624215
0.624215
0.63198
0.63198
0.63198
0.63198
0.63198
0.63198
0.63198
0.63198
0.63198
0.63198
0.63198
0.63198
0.63198
0.631979
0.631979
0.631979
0.631978
0.631978
0.631978
0.631977
0.639742
0.639742
0.639742
0.639742
0.639742
0.639742
0.639742
0.639742
0.639742
0.639742
0.639742
0.639742
0.639741
0.639741
0.639741
0.639741
0.63974
0.63974
0.63974
0.639739
0.647503
0.647503
0.647503
0.647503
0.647503
0.647503
0.647503
0.647503
0.647503
0.647503
0.647503
0.647503
0.647503
0.647503
0.647502
0.647502
0.647502
0.647502
0.647502
0.647502
0.655265
0.655265
0.655265
0.655265
0.655265
0.655264
0.655264
0.655264
0.655264
0.655264
0.655264
0.655264
0.655264
0.655264
0.655264
0.655264
0.655264
0.655264
0.655264
0.655264
0.663026
0.663027
0.663026
0.663026
0.663026
0.663026
0.663026
0.663026
0.663026
0.663026
0.663026
0.663026
0.663026
0.663026
0.663026
0.663026
0.663026
0.663027
0.663027
0.663027
0.670788
0.670789
0.670788
0.670788
0.670788
0.670788
0.670788
0.670788
0.670788
0.670788
0.670788
0.670788
0.670788
0.670788
0.670789
0.670789
0.670789
0.670789
0.67079
0.67079
0.678551
0.678551
0.678551
0.67855
0.67855
0.67855
0.67855
0.67855
0.678551
0.678551
0.678551
0.678551
0.678551
0.678552
0.678552
0.678552
0.678552
0.678553
0.678553
0.678553
0.686314
0.686314
0.686314
0.686314
0.686314
0.686314
0.686314
0.686314
0.686314
0.686314
0.686315
0.686315
0.686315
0.686315
0.686316
0.686316
0.686316
0.686316
0.686317
0.686317
0.694078
0.694078
0.694078
0.694078
0.694078
0.694078
0.694078
0.694078
0.694078
0.694079
0.694079
0.694079
0.694079
0.69408
0.69408
0.69408
0.69408
0.69408
0.694081
0.69408
0.701843
0.701843
0.701843
0.701843
0.701843
0.701843
0.701843
0.701843
0.701843
0.701843
0.701844
0.701844
0.701844
0.701844
0.701844
0.701844
0.701845
0.701845
0.701845
0.701844
0.709608
0.709608
0.709608
0.709608
0.709608
0.709608
0.709608
0.709608
0.709608
0.709608
0.709609
0.709609
0.709609
0.709609
0.709609
0.709609
0.709609
0.709609
0.709609
0.709608
0.717372
0.717373
0.717373
0.717373
0.717373
0.717373
0.717373
0.717373
0.717373
0.717373
0.717373
0.717373
0.717373
0.717373
0.717373
0.717373
0.717373
0.717373
0.717372
0.717371
0.725137
0.725138
0.725138
0.725138
0.725138
0.725138
0.725138
0.725138
0.725138
0.725138
0.725138
0.725137
0.725137
0.725137
0.725137
0.725137
0.725136
0.725136
0.725136
0.725135
0.732902
0.732902
0.732902
0.732903
0.732903
0.732903
0.732902
0.732902
0.732902
0.732902
0.732901
0.732901
0.732901
0.7329
0.7329
0.7329
0.732899
0.732899
0.732899
0.732898
0.740666
0.740666
0.740666
0.740666
0.740666
0.740666
0.740666
0.740666
0.740665
0.740665
0.740665
0.740664
0.740664
0.740663
0.740663
0.740663
0.740663
0.740662
0.740662
0.740662
0.748429
0.74843
0.74843
0.74843
0.74843
0.748429
0.748429
0.748429
0.748428
0.748428
0.748427
0.748427
0.748427
0.748426
0.748426
0.748426
0.748426
0.748425
0.748425
0.748425
0.756192
0.756192
0.756193
0.756192
0.756192
0.756192
0.756192
0.756191
0.756191
0.75619
0.75619
0.75619
0.756189
0.756189
0.756189
0.756189
0.75619
0.756189
0.756189
0.756189
0.763955
0.763955
0.763955
0.763955
0.763954
0.763954
0.763954
0.763954
0.763953
0.763953
0.763953
0.763952
0.763952
0.763952
0.763952
0.763952
0.763952
0.763952
0.763953
0.763953
0.771717
0.771717
0.771717
0.771717
0.771717
0.771717
0.771716
0.771716
0.771716
0.771716
0.771716
0.771716
0.771716
0.771716
0.771716
0.771716
0.771716
0.771716
0.771717
0.771717
0.779479
0.77948
0.77948
0.77948
0.779479
0.779479
0.779479
0.779479
0.779479
0.779479
0.779479
0.779479
0.77948
0.77948
0.77948
0.779481
0.77948
0.779481
0.779481
0.779481
0.787242
0.787242
0.787242
0.787242
0.787242
0.787242
0.787242
0.787243
0.787243
0.787243
0.787243
0.787244
0.787244
0.787244
0.787244
0.787245
0.787245
0.787245
0.787245
0.787245
0.795006
0.795006
0.795005
0.795005
0.795006
0.795006
0.795006
0.795007
0.795007
0.795007
0.795008
0.795008
0.795009
0.795009
0.795009
0.795009
0.795009
0.795009
0.795009
0.795009
0.802769
0.802769
0.802769
0.802769
0.802769
0.80277
0.80277
0.802771
0.802771
0.802772
0.802772
0.802773
0.802773
0.802773
0.802773
0.802773
0.802773
0.802773
0.802773
0.802772
0.810533
0.810533
0.810533
0.810533
0.810534
0.810534
0.810535
0.810535
0.810536
0.810536
0.810536
0.810537
0.810537
0.810537
0.810537
0.810537
0.810537
0.810537
0.810536
0.810536
0.818297
0.818297
0.818297
0.818297
0.818298
0.818298
0.818299
0.818299
0.8183
0.8183
0.8183
0.8183
0.8183
0.8183
0.8183
0.8183
0.8183
0.8183
0.818299
0.818299
0.826061
0.826061
0.826061
0.826062
0.826062
0.826062
0.826062
0.826063
0.826063
0.826063
0.826063
0.826063
0.826063
0.826063
0.826063
0.826063
0.826063
0.826062
0.826062
0.826063
0.833826
0.833825
0.833825
0.833825
0.833826
0.833826
0.833826
0.833826
0.833826
0.833826
0.833826
0.833826
0.833826
0.833826
0.833825
0.833825
0.833825
0.833825
0.833825
0.833826
0.841589
0.841589
0.841589
0.841589
0.841589
0.841589
0.841589
0.841589
0.841589
0.841588
0.841588
0.841588
0.841588
0.841588
0.841588
0.841588
0.841588
0.841589
0.841589
0.841589
0.849353
0.849353
0.849353
0.849353
0.849352
0.849352
0.849352
0.849352
0.849351
0.849351
0.849351
0.849351
0.849351
0.849351
0.849351
0.849352
0.849352
0.849353
0.849353
0.849353
0.857116
0.857116
0.857116
0.857116
0.857116
0.857115
0.857115
0.857114
0.857114
0.857114
0.857114
0.857114
0.857114
0.857114
0.857115
0.857116
0.857116
0.857117
0.857117
0.857117
0.86488
0.86488
0.86488
0.864879
0.864879
0.864879
0.864878
0.864878
0.864877
0.864877
0.864877
0.864877
0.864878
0.864879
0.864879
0.86488
0.864881
0.864881
0.864882
0.864881
0.872644
0.872644
0.872643
0.872643
0.872643
0.872642
0.872642
0.872641
0.872641
0.872641
0.872641
0.872642
0.872642
0.872643
0.872644
0.872645
0.872645
0.872646
0.872646
0.872645
0.880408
0.880407
0.880407
0.880407
0.880406
0.880406
0.880405
0.880405
0.880405
0.880405
0.880406
0.880406
0.880407
0.880408
0.880408
0.880409
0.880409
0.880409
0.880409
0.880408
0.888171
0.888171
0.888171
0.88817
0.88817
0.88817
0.888169
0.888169
0.888169
0.88817
0.88817
0.888171
0.888171
0.888172
0.888172
0.888172
0.888172
0.888172
0.888172
0.888171
0.895935
0.895934
0.895934
0.895934
0.895934
0.895934
0.895934
0.895934
0.895934
0.895934
0.895935
0.895935
0.895935
0.895935
0.895935
0.895935
0.895935
0.895935
0.895934
0.895934
0.903698
0.903698
0.903697
0.903697
0.903697
0.903697
0.903698
0.903698
0.903698
0.903698
0.903699
0.903699
0.903699
0.903699
0.903698
0.903698
0.903697
0.903697
0.903696
0.903696
0.911461
0.911461
0.911461
0.911461
0.911461
0.911461
0.911461
0.911462
0.911462
0.911462
0.911463
0.911462
0.911462
0.911461
0.911461
0.91146
0.911459
0.911459
0.911459
0.911458
0.919224
0.919224
0.919224
0.919224
0.919224
0.919225
0.919225
0.919226
0.919226
0.919226
0.919226
0.919226
0.919225
0.919224
0.919224
0.919223
0.919222
0.919222
0.919221
0.919221
0.926987
0.926987
0.926987
0.926987
0.926987
0.926988
0.926989
0.926989
0.92699
0.92699
0.92699
0.926989
0.926989
0.926988
0.926987
0.926986
0.926985
0.926985
0.926985
0.926985
0.93475
0.93475
0.93475
0.93475
0.934751
0.934752
0.934752
0.934753
0.934754
0.934754
0.934754
0.934754
0.934753
0.934752
0.934751
0.93475
0.93475
0.934749
0.934749
0.934749
0.942513
0.942513
0.942513
0.942513
0.942514
0.942515
0.942516
0.942517
0.942517
0.942517
0.942518
0.942517
0.942516
0.942516
0.942515
0.942515
0.942514
0.942514
0.942514
0.942514
0.950277
0.950276
0.950276
0.950277
0.950278
0.950278
0.950279
0.95028
0.95028
0.950281
0.950281
0.95028
0.95028
0.95028
0.950279
0.950279
0.950278
0.950278
0.950278
0.950278
0.95804
0.95804
0.95804
0.95804
0.958041
0.958042
0.958042
0.958043
0.958043
0.958044
0.958044
0.958044
0.958044
0.958043
0.958043
0.958043
0.958042
0.958042
0.958042
0.958041
0.965804
0.965803
0.965804
0.965804
0.965804
0.965805
0.965805
0.965806
0.965806
0.965806
0.965806
0.965806
0.965806
0.965806
0.965806
0.965806
0.965806
0.965806
0.965805
0.965805
0.973567
0.973567
0.973567
0.973567
0.973567
0.973568
0.973568
0.973568
0.973568
0.973568
0.973569
0.973569
0.973569
0.973569
0.973569
0.973569
0.973569
0.973569
0.973569
0.973569
0.981331
0.981331
0.981331
0.981331
0.981331
0.981331
0.981331
0.981331
0.981331
0.981331
0.981331
0.981331
0.981331
0.981332
0.981332
0.981332
0.981332
0.981332
0.981332
0.981332
0.989095
0.989095
0.989095
0.989094
0.989094
0.989094
0.989093
0.989093
0.989093
0.989093
0.989093
0.989094
0.989094
0.989095
0.989095
0.989096
0.989096
0.989096
0.989096
0.989095
0.996859
0.996859
0.996858
0.996858
0.996857
0.996857
0.996856
0.996856
0.996856
0.996856
0.996857
0.996857
0.996858
0.996858
0.996859
0.996859
0.99686
0.99686
0.996859
0.996859
1.00462
1.00462
1.00462
1.00462
1.00462
1.00462
1.00462
1.00462
1.00462
1.00462
1.00462
1.00462
1.00462
1.00462
1.00462
1.00462
1.00462
1.00462
1.00462
1.00462
1.01239
1.01239
1.01239
1.01238
1.01238
1.01238
1.01238
1.01238
1.01238
1.01238
1.01238
1.01238
1.01239
1.01239
1.01239
1.01239
1.01239
1.01239
1.01239
1.01239
1.02015
1.02015
1.02015
1.02015
1.02015
1.02015
1.02015
1.02015
1.02015
1.02015
1.02015
1.02015
1.02015
1.02015
1.02015
1.02015
1.02015
1.02015
1.02015
1.02015
1.02791
1.02791
1.02791
1.02791
1.02791
1.02791
1.02791
1.02791
1.02791
1.02791
1.02791
1.02791
1.02791
1.02791
1.02791
1.02791
1.02791
1.02791
1.02791
1.02791
1.03568
1.03567
1.03567
1.03567
1.03567
1.03567
1.03567
1.03567
1.03567
1.03567
1.03567
1.03568
1.03568
1.03568
1.03568
1.03568
1.03568
1.03568
1.03568
1.03568
1.04344
1.04344
1.04344
1.04344
1.04343
1.04343
1.04343
1.04343
1.04343
1.04344
1.04344
1.04344
1.04344
1.04344
1.04344
1.04344
1.04344
1.04344
1.04344
1.04344
1.0512
1.0512
1.0512
1.0512
1.0512
1.0512
1.0512
1.0512
1.0512
1.0512
1.0512
1.0512
1.0512
1.0512
1.05121
1.05121
1.05121
1.05121
1.05121
1.05121
1.05897
1.05896
1.05896
1.05896
1.05896
1.05896
1.05896
1.05896
1.05896
1.05896
1.05896
1.05897
1.05897
1.05897
1.05897
1.05897
1.05897
1.05897
1.05897
1.05897
1.06673
1.06673
1.06672
1.06672
1.06672
1.06672
1.06672
1.06672
1.06672
1.06673
1.06673
1.06673
1.06673
1.06673
1.06673
1.06673
1.06674
1.06673
1.06673
1.06673
1.07449
1.07449
1.07449
1.07449
1.07449
1.07448
1.07448
1.07449
1.07449
1.07449
1.07449
1.07449
1.07449
1.0745
1.0745
1.0745
1.0745
1.0745
1.0745
1.0745
1.08226
1.08225
1.08225
1.08225
1.08225
1.08225
1.08225
1.08225
1.08225
1.08225
1.08225
1.08226
1.08226
1.08226
1.08226
1.08226
1.08226
1.08226
1.08226
1.08226
1.09002
1.09002
1.09001
1.09001
1.09001
1.09001
1.09001
1.09001
1.09001
1.09001
1.09002
1.09002
1.09002
1.09003
1.09003
1.09003
1.09003
1.09003
1.09003
1.09002
1.09778
1.09778
1.09777
1.09777
1.09777
1.09777
1.09777
1.09777
1.09777
1.09778
1.09778
1.09778
1.09779
1.09779
1.09779
1.09779
1.09779
1.09779
1.09779
1.09779
1.10554
1.10554
1.10554
1.10553
1.10553
1.10553
1.10553
1.10553
1.10554
1.10554
1.10554
1.10555
1.10555
1.10556
1.10556
1.10556
1.10556
1.10556
1.10556
1.10555
1.11331
1.1133
1.1133
1.11329
1.11329
1.11329
1.11329
1.11329
1.1133
1.1133
1.11331
1.11331
1.11332
1.11332
1.11333
1.11333
1.11333
1.11333
1.11332
1.11332
1.12107
1.12107
1.12106
1.12105
1.12105
1.12105
1.12105
1.12105
1.12106
1.12106
1.12107
1.12108
1.12108
1.12109
1.12109
1.12109
1.1211
1.12109
1.12109
1.12109
1.12884
1.12883
1.12882
1.12882
1.12881
1.12881
1.12881
1.12881
1.12882
1.12882
1.12883
1.12884
1.12885
1.12885
1.12886
1.12886
1.12886
1.12886
1.12886
1.12886
1.13661
1.1366
1.13659
1.13658
1.13657
1.13657
1.13657
1.13657
1.13658
1.13658
1.13659
1.1366
1.13661
1.13662
1.13663
1.13663
1.13663
1.13663
1.13663
1.13663
1.14438
1.14436
1.14435
1.14434
1.14433
1.14432
1.14432
1.14433
1.14433
1.14434
1.14435
1.14436
1.14438
1.14439
1.14439
1.1444
1.1444
1.14441
1.14441
1.1444
1.15215
1.15213
1.15211
1.1521
1.15209
1.15208
1.15208
1.15208
1.15209
1.1521
1.15211
1.15213
1.15214
1.15215
1.15216
1.15217
1.15218
1.15218
1.15218
1.15217
1.15992
1.1599
1.15988
1.15986
1.15984
1.15984
1.15983
1.15984
1.15984
1.15986
1.15987
1.15989
1.1599
1.15992
1.15993
1.15994
1.15995
1.15996
1.15996
1.15995
1.1677
1.16767
1.16765
1.16762
1.1676
1.16759
1.16759
1.16759
1.1676
1.16761
1.16763
1.16765
1.16767
1.16769
1.1677
1.16772
1.16773
1.16774
1.16774
1.16774
1.17549
1.17545
1.17541
1.17538
1.17536
1.17534
1.17534
1.17534
1.17535
1.17536
1.17538
1.1754
1.17543
1.17545
1.17548
1.1755
1.17552
1.17553
1.17554
1.17553
1.18328
1.18323
1.18319
1.18315
1.18311
1.18309
1.18308
1.18308
1.18309
1.1831
1.18313
1.18316
1.18319
1.18322
1.18325
1.18328
1.1833
1.18332
1.18334
1.18334
1.19108
1.19102
1.19096
1.19091
1.19087
1.19084
1.19082
1.19082
1.19083
1.19084
1.19087
1.1909
1.19094
1.19098
1.19103
1.19106
1.1911
1.19112
1.19115
1.19115
1.19889
1.19882
1.19874
1.19868
1.19863
1.19859
1.19856
1.19855
1.19856
1.19857
1.1986
1.19864
1.19869
1.19875
1.1988
1.19886
1.1989
1.19893
1.19897
1.19897
1.2067
1.20663
1.20653
1.20645
1.20639
1.20634
1.2063
1.20628
1.20628
1.20629
1.20633
1.20638
1.20644
1.20651
1.20659
1.20666
1.20672
1.20676
1.20682
1.2068
1.21447
1.21446
1.21433
1.21424
1.21416
1.21409
1.21403
1.214
1.21398
1.21399
1.21403
1.21409
1.21417
1.21427
1.21437
1.21447
1.21456
1.2146
1.2147
1.21459
1.22215
1.22233
1.22214
1.22205
1.22194
1.22184
1.22176
1.2217
1.22167
1.22167
1.22171
1.22178
1.22189
1.22202
1.22216
1.2223
1.22244
1.22246
1.22264
1.22227
1.23009
1.23032
1.22998
1.22989
1.22975
1.2296
1.22948
1.22938
1.22932
1.22931
1.22935
1.22944
1.22957
1.22975
1.22996
1.23016
1.23038
1.23033
1.23074
1.23001
1.23657
1.23854
1.23783
1.23779
1.23757
1.23736
1.23718
1.23703
1.23694
1.2369
1.23693
1.23704
1.23721
1.23745
1.23774
1.23804
1.2384
1.23822
1.2391
1.2367
1.24078
1.24727
1.24598
1.24584
1.24543
1.24511
1.24485
1.24465
1.2445
1.24442
1.24444
1.24456
1.24478
1.24509
1.24549
1.24596
1.24653
1.24654
1.24803
1.24097
1.31464
1.25775
1.25498
1.25403
1.25328
1.25283
1.25248
1.2522
1.25198
1.25185
1.25185
1.25197
1.25223
1.25261
1.25313
1.25381
1.25474
1.25592
1.25874
1.31387
1.29426
1.26677
1.26227
1.2614
1.26079
1.2604
1.26004
1.25968
1.25937
1.25916
1.25911
1.25923
1.25952
1.25995
1.26051
1.26124
1.26204
1.26359
1.26871
1.2977
1.27575
1.29284
1.26824
1.26769
1.268
1.26792
1.26757
1.2671
1.26665
1.26633
1.26621
1.26632
1.26664
1.26711
1.26767
1.26833
1.26807
1.26989
1.29678
1.27818
1.27968
1.31174
1.2772
1.27468
1.2757
1.27574
1.27523
1.27452
1.27381
1.27329
1.27307
1.27318
1.27359
1.27419
1.27487
1.27571
1.27477
1.27916
1.31997
1.28404
1.28713
1.29984
1.28353
1.28489
1.28455
1.28413
1.28313
1.28193
1.28081
1.27999
1.27962
1.27975
1.28032
1.28121
1.28227
1.28342
1.28528
1.2849
1.30948
1.28742
1.29167
1.30151
1.30998
1.29317
1.29304
1.29275
1.29115
1.28923
1.28752
1.28626
1.2857
1.28587
1.28668
1.2879