/*--------------------------------*- C++ -*----------------------------------*\
| =========                 |                                                 |
| \\      /  F ield         | OpenFOAM: The Open Source CFD Toolbox           |
|  \\    /   O peration     | Version:  5.x                                   |
|   \\  /    A nd           | Web:      www.OpenFOAM.org                      |
|    \\/     M anipulation  |                                                 |
\*---------------------------------------------------------------------------*/
FoamFile
{
    version     2.0;
    format      ascii;
    class       surfaceScalarField;
    location    "0.3";
    object      phi;
}
// * * * * * * * * * * * * * * * * * * * * * * * * * * * * * * * * * * * * * //

dimensions      [0 3 -1 0 0 0 0];

internalField   nonuniform List<scalar> 
15580
(
3.0411e-18
7.26061e-11
6.13043e-18
2.28653e-10
6.29939e-18
3.81106e-10
5.46286e-18
5.21685e-10
4.34435e-18
6.45696e-10
3.16638e-18
7.50427e-10
1.9599e-18
8.34486e-10
7.20485e-19
8.97379e-10
-5.47385e-19
9.39119e-10
-1.81072e-18
9.59909e-10
-3.00353e-18
9.59909e-10
-3.99378e-18
9.39119e-10
-4.55736e-18
8.97379e-10
-4.35555e-18
8.34486e-10
-2.95037e-18
7.50427e-10
5.73933e-20
6.45696e-10
4.60273e-18
5.21685e-10
9.09017e-18
3.81106e-10
8.79586e-18
2.28653e-10
7.26063e-11
1.32355e-17
7.26061e-11
1.65331e-17
2.28653e-10
1.40328e-17
3.81106e-10
1.04325e-17
5.21685e-10
7.1182e-18
6.45696e-10
4.24553e-18
7.50427e-10
1.60398e-18
8.34486e-10
-1.00261e-18
8.97379e-10
-3.65352e-18
9.39119e-10
-6.30417e-18
9.59909e-10
-8.76279e-18
9.59909e-10
-1.06424e-17
9.39119e-10
-1.13078e-17
8.97379e-10
-9.85421e-18
8.34486e-10
-5.20548e-18
7.50427e-10
3.47593e-18
6.45696e-10
1.56326e-17
5.21685e-10
2.71287e-17
3.81106e-10
2.827e-17
2.28653e-10
7.26063e-11
2.61446e-17
7.26061e-11
2.47197e-17
2.28653e-10
1.76635e-17
3.81106e-10
1.0627e-17
5.21685e-10
5.16931e-18
6.45696e-10
1.0439e-18
7.50427e-10
-2.40476e-18
8.34486e-10
-5.69392e-18
8.97379e-10
-9.06902e-18
9.39119e-10
-1.25181e-17
9.59909e-10
-1.57618e-17
9.59909e-10
-1.82135e-17
9.39119e-10
-1.89333e-17
8.97379e-10
-1.66433e-17
8.34486e-10
-9.95617e-18
7.50427e-10
1.93358e-18
6.45696e-10
1.77252e-17
5.21685e-10
3.15214e-17
3.81106e-10
3.11979e-17
2.28653e-10
7.26063e-11
2.6014e-17
7.26061e-11
2.30092e-17
2.28653e-10
1.41379e-17
3.81106e-10
5.91292e-18
5.21685e-10
-1.30898e-19
6.45696e-10
-4.53452e-18
7.50427e-10
-8.22788e-18
8.34486e-10
-1.19083e-17
8.97379e-10
-1.59223e-17
9.39119e-10
-2.02813e-17
9.59909e-10
-2.46658e-17
9.59909e-10
-2.83922e-17
9.39119e-10
-3.03684e-17
8.97379e-10
-2.91208e-17
8.34486e-10
-2.30875e-17
7.50427e-10
-1.14522e-17
6.45696e-10
4.26344e-18
5.21685e-10
1.79358e-17
3.81106e-10
1.73876e-17
2.28653e-10
7.26064e-11
1.17504e-17
7.26061e-11
7.40533e-18
2.28653e-10
6.89055e-19
3.81106e-10
-4.94763e-18
5.21685e-10
-8.98431e-18
6.45696e-10
-1.21144e-17
7.50427e-10
-1.52224e-17
8.34486e-10
-1.89374e-17
8.97379e-10
-2.35609e-17
9.39119e-10
-2.90827e-17
9.59909e-10
-3.51789e-17
9.59909e-10
-4.11621e-17
9.39119e-10
-4.59138e-17
8.97379e-10
-4.78763e-17
8.34486e-10
-4.52715e-17
7.50427e-10
-3.67613e-17
6.45696e-10
-2.28209e-17
5.21685e-10
-7.31301e-18
3.81106e-10
-3.79559e-20
2.28653e-10
7.26064e-11
-1.30292e-17
7.26061e-11
-1.79579e-17
2.28653e-10
-1.98862e-17
3.81106e-10
-2.02987e-17
5.21685e-10
-2.03375e-17
6.45696e-10
-2.09105e-17
7.50427e-10
-2.26793e-17
8.34486e-10
-2.60499e-17
8.97379e-10
-3.11823e-17
9.39119e-10
-3.80162e-17
9.59909e-10
-4.62469e-17
9.59909e-10
-5.52695e-17
9.39119e-10
-6.40578e-17
8.97379e-10
-7.10976e-17
8.34486e-10
-7.44271e-17
7.50427e-10
-7.18178e-17
6.45696e-10
-6.15031e-17
5.21685e-10
-4.41554e-17
3.81106e-10
-1.41524e-17
2.28653e-10
7.26063e-11
-3.73124e-17
7.26061e-11
-4.35207e-17
2.28653e-10
-4.07329e-17
3.81106e-10
-3.58069e-17
5.21685e-10
-3.15534e-17
6.45696e-10
-2.92248e-17
7.50427e-10
-2.93631e-17
8.34486e-10
-3.21817e-17
8.97379e-10
-3.76942e-17
9.39119e-10
-4.58124e-17
9.59909e-10
-5.62795e-17
9.59909e-10
-6.86227e-17
9.39119e-10
-8.20278e-17
8.97379e-10
-9.52184e-17
8.34486e-10
-1.06373e-16
7.50427e-10
-1.12946e-16
6.45696e-10
-1.11086e-16
5.21685e-10
-1.00075e-16
3.81106e-10
-6.89904e-17
2.28653e-10
7.26063e-11
-5.15017e-17
7.26062e-11
-5.98794e-17
2.28653e-10
-5.46874e-17
3.81106e-10
-4.6489e-17
5.21685e-10
-3.9373e-17
6.45696e-10
-3.49225e-17
7.50427e-10
-3.37511e-17
8.34486e-10
-3.60684e-17
8.97379e-10
-4.18666e-17
9.39119e-10
-5.10325e-17
9.59909e-10
-6.33987e-17
9.59909e-10
-7.86224e-17
9.39119e-10
-9.61078e-17
8.97379e-10
-1.14865e-16
8.34486e-10
-1.33329e-16
7.50427e-10
-1.49022e-16
6.45696e-10
-1.57368e-16
5.21685e-10
-1.54889e-16
3.81106e-10
-1.27974e-16
2.28653e-10
7.26062e-11
-5.05189e-17
7.26062e-11
-6.19964e-17
2.28653e-10
-5.78137e-17
3.81106e-10
-4.92507e-17
5.21685e-10
-4.14017e-17
6.45696e-10
-3.6213e-17
7.50427e-10
-3.44926e-17
8.34486e-10
-3.6581e-17
8.97379e-10
-4.25783e-17
9.39119e-10
-5.23827e-17
9.59909e-10
-6.58708e-17
9.59909e-10
-8.27915e-17
9.39119e-10
-1.0265e-16
8.97379e-10
-1.24536e-16
8.34486e-10
-1.46717e-16
7.50427e-10
-1.65911e-16
6.45696e-10
-1.76802e-16
5.21685e-10
-1.69523e-16
3.81106e-10
-1.16012e-16
2.28653e-10
7.2606e-11
-3.6663e-17
7.26062e-11
-5.23331e-17
2.28653e-10
-5.12481e-17
3.81106e-10
-4.41733e-17
5.21685e-10
-3.70646e-17
6.45696e-10
-3.23422e-17
7.50427e-10
-3.08898e-17
8.34486e-10
-3.30979e-17
8.97379e-10
-3.91326e-17
9.39119e-10
-4.90077e-17
9.59909e-10
-6.25808e-17
9.59909e-10
-7.96112e-17
9.39119e-10
-9.96041e-17
8.97379e-10
-1.2154e-16
8.34486e-10
-1.43399e-16
7.50427e-10
-1.61991e-16
6.45696e-10
-1.71537e-16
5.21685e-10
-1.58963e-16
3.81106e-10
-1.06147e-16
2.28653e-10
7.26059e-11
-2.55239e-17
7.26063e-11
-3.93762e-17
2.28653e-10
-3.90816e-17
3.81106e-10
-3.35089e-17
5.21685e-10
-2.7625e-17
6.45696e-10
-2.38755e-17
7.50427e-10
-2.31403e-17
8.34486e-10
-2.56715e-17
8.97379e-10
-3.15587e-17
9.39119e-10
-4.08377e-17
9.59909e-10
-5.34007e-17
9.59909e-10
-6.89535e-17
9.39119e-10
-8.68767e-17
8.97379e-10
-1.05895e-16
8.34486e-10
-1.23875e-16
7.50427e-10
-1.37781e-16
6.45696e-10
-1.42814e-16
5.21685e-10
-1.27249e-16
3.81106e-10
-9.15885e-17
2.28653e-10
7.26058e-11
-2.26024e-17
7.26063e-11
-2.4938e-17
2.28653e-10
-2.26864e-17
3.81106e-10
-1.83193e-17
5.21685e-10
-1.42661e-17
6.45696e-10
-1.20183e-17
7.50427e-10
-1.22051e-17
8.34486e-10
-1.50484e-17
8.97379e-10
-2.05864e-17
9.39119e-10
-2.87663e-17
9.59909e-10
-3.94397e-17
9.59909e-10
-5.22408e-17
9.39119e-10
-6.64228e-17
8.97379e-10
-8.05699e-17
8.34486e-10
-9.24066e-17
7.50427e-10
-9.86287e-17
6.45696e-10
-9.51621e-17
5.21685e-10
-7.52333e-17
3.81106e-10
-4.01836e-17
2.28653e-10
7.26058e-11
-4.60083e-18
7.26063e-11
-1.18313e-18
2.28653e-10
-4.09915e-19
3.81106e-10
1.00069e-18
5.21685e-10
2.07594e-18
6.45696e-10
2.20894e-18
7.50427e-10
8.29921e-19
8.34486e-10
-2.31627e-18
8.97379e-10
-7.29779e-18
9.39119e-10
-1.40584e-17
9.59909e-10
-2.24051e-17
9.59909e-10
-3.19243e-17
9.39119e-10
-4.18486e-17
8.97379e-10
-5.08125e-17
8.34487e-10
-5.65008e-17
7.50427e-10
-5.57419e-17
6.45696e-10
-4.63663e-17
5.21685e-10
-2.785e-17
3.81106e-10
2.60152e-18
2.28653e-10
7.26058e-11
2.68599e-17
7.26063e-11
2.66627e-17
2.28653e-10
2.35268e-17
3.81106e-10
2.10825e-17
5.21685e-10
1.90078e-17
6.45696e-10
1.70331e-17
7.50427e-10
1.45745e-17
8.34486e-10
1.12965e-17
8.97379e-10
7.08567e-18
9.39119e-10
1.9764e-18
9.59909e-10
-3.85014e-18
9.59909e-10
-1.00387e-17
9.39119e-10
-1.59454e-17
8.97379e-10
-2.02785e-17
8.34487e-10
-2.10298e-17
7.50427e-10
-1.6845e-17
6.45696e-10
-8.79806e-18
5.21685e-10
1.02725e-18
3.81106e-10
1.38284e-17
2.28653e-10
7.26058e-11
4.40239e-17
7.26062e-11
4.35123e-17
2.28653e-10
4.01923e-17
3.81106e-10
3.64837e-17
5.21685e-10
3.31612e-17
6.45696e-10
3.02395e-17
7.50427e-10
2.74231e-17
8.34486e-10
2.44668e-17
8.97379e-10
2.13033e-17
9.39119e-10
1.80171e-17
9.59909e-10
1.47857e-17
9.59909e-10
1.18575e-17
9.39119e-10
9.76248e-18
8.97379e-10
9.5518e-18
8.34487e-10
1.22487e-17
7.50427e-10
1.62626e-17
6.45696e-10
1.81738e-17
5.21685e-10
1.59023e-17
3.81106e-10
4.52034e-18
2.28653e-10
7.26058e-11
3.09965e-17
7.26062e-11
4.31041e-17
2.28653e-10
4.45885e-17
3.81106e-10
4.37703e-17
5.21685e-10
4.22439e-17
6.45696e-10
4.03077e-17
7.50427e-10
3.82476e-17
8.34486e-10
3.6203e-17
8.97379e-10
3.43694e-17
9.39119e-10
3.30031e-17
9.59909e-10
3.23317e-17
9.59909e-10
3.25529e-17
9.39119e-10
3.41046e-17
8.97379e-10
3.74063e-17
8.34487e-10
4.17996e-17
7.50427e-10
4.53082e-17
6.45696e-10
4.1754e-17
5.21685e-10
3.22992e-17
3.81106e-10
1.26363e-17
2.28653e-10
7.26058e-11
1.95005e-17
7.26062e-11
3.3702e-17
2.28653e-10
4.02627e-17
3.81106e-10
4.39987e-17
5.21685e-10
4.62105e-17
6.45696e-10
4.68424e-17
7.50427e-10
4.65574e-17
8.34486e-10
4.59786e-17
8.97379e-10
4.57037e-17
9.39119e-10
4.62672e-17
9.59909e-10
4.80625e-17
9.59909e-10
5.12482e-17
9.39119e-10
5.5669e-17
8.97379e-10
6.10334e-17
8.34487e-10
6.59056e-17
7.50427e-10
6.90558e-17
6.45696e-10
6.53629e-17
5.21685e-10
5.11176e-17
3.81106e-10
2.63828e-17
2.28653e-10
7.26059e-11
6.49593e-18
7.26062e-11
1.83276e-17
2.28653e-10
3.08777e-17
3.81106e-10
4.00995e-17
5.21685e-10
4.67945e-17
6.45696e-10
5.06889e-17
7.50427e-10
5.26519e-17
8.34486e-10
5.37383e-17
8.97379e-10
5.49867e-17
9.39119e-10
5.72961e-17
9.59909e-10
6.12364e-17
9.59909e-10
6.67821e-17
9.39119e-10
7.31213e-17
8.97379e-10
7.89771e-17
8.34486e-10
8.32912e-17
7.50427e-10
8.46428e-17
6.45696e-10
8.39142e-17
5.21685e-10
6.98087e-17
3.81106e-10
4.11056e-17
2.28653e-10
7.26059e-11
-1.61384e-17
7.26062e-11
5.50251e-18
2.28653e-10
2.35474e-17
3.81106e-10
3.74649e-17
5.21685e-10
4.72573e-17
6.45696e-10
5.3684e-17
7.50427e-10
5.74517e-17
8.34486e-10
5.9819e-17
8.97379e-10
6.21082e-17
9.39119e-10
6.55371e-17
9.59909e-10
7.09034e-17
9.59909e-10
7.80751e-17
9.39119e-10
8.56507e-17
8.97379e-10
9.1823e-17
8.34486e-10
9.64271e-17
7.50427e-10
9.71226e-17
6.45696e-10
9.6e-17
5.21685e-10
8.28585e-17
3.81106e-10
5.35535e-17
2.28653e-10
7.2606e-11
-1.41361e-17
7.26062e-11
1.3313e-17
2.28653e-10
3.13581e-17
3.81106e-10
4.26587e-17
5.21685e-10
5.1286e-17
6.45696e-10
5.76874e-17
7.50427e-10
6.18612e-17
8.34486e-10
6.46394e-17
8.97379e-10
6.71602e-17
9.39119e-10
7.07158e-17
9.59909e-10
7.63972e-17
9.59909e-10
8.40006e-17
9.39119e-10
9.19451e-17
8.97379e-10
9.90131e-17
8.34486e-10
1.0561e-16
7.50427e-10
1.08418e-16
6.45696e-10
1.04815e-16
5.21685e-10
9.06433e-17
3.81106e-10
6.18484e-17
2.28653e-10
7.2606e-11
3.66543e-17
7.26062e-11
4.28879e-17
2.28653e-10
5.19683e-17
3.81106e-10
5.46755e-17
5.21685e-10
5.86345e-17
6.45696e-10
6.27287e-17
7.50427e-10
6.58546e-17
8.34486e-10
6.81824e-17
8.97379e-10
7.02601e-17
9.39119e-10
7.30632e-17
9.59909e-10
7.79255e-17
9.59909e-10
8.46343e-17
9.39119e-10
9.21779e-17
8.97379e-10
9.9806e-17
8.34486e-10
1.07426e-16
7.50427e-10
1.13453e-16
6.45696e-10
1.11283e-16
5.21685e-10
9.78306e-17
3.81106e-10
6.74664e-17
2.28653e-10
7.26061e-11
4.90277e-17
7.26061e-11
5.86289e-17
2.28653e-10
6.31385e-17
3.81106e-10
6.55218e-17
5.21685e-10
6.58476e-17
6.45696e-10
6.71566e-17
7.50427e-10
6.84905e-17
8.34486e-10
6.97254e-17
8.97379e-10
7.10983e-17
9.39119e-10
7.29133e-17
9.59909e-10
7.60679e-17
9.59909e-10
8.10357e-17
9.39119e-10
8.76445e-17
8.97379e-10
9.63151e-17
8.34486e-10
1.05443e-16
7.50427e-10
1.14185e-16
6.45696e-10
1.15285e-16
5.21685e-10
1.0444e-16
3.81106e-10
7.15431e-17
2.28653e-10
7.26062e-11
3.43708e-17
7.26061e-11
5.55959e-17
2.28653e-10
6.98084e-17
3.81106e-10
7.40618e-17
5.21685e-10
7.25031e-17
6.45696e-10
7.05146e-17
7.50427e-10
6.90916e-17
8.34486e-10
6.83647e-17
8.97379e-10
6.84276e-17
9.39119e-10
6.90863e-17
9.59909e-10
7.04287e-17
9.59909e-10
7.39108e-17
9.39119e-10
8.14227e-17
8.97379e-10
9.24169e-17
8.34486e-10
1.0347e-16
7.50427e-10
1.13885e-16
6.45696e-10
1.17331e-16
5.21685e-10
1.09199e-16
3.81106e-10
7.43698e-17
2.28653e-10
7.26062e-11
9.14303e-18
7.26061e-11
6.06572e-17
2.28653e-10
7.96181e-17
3.81106e-10
8.34193e-17
5.21685e-10
7.94712e-17
6.45696e-10
7.34072e-17
7.50427e-10
6.81436e-17
8.34486e-10
6.43289e-17
8.97379e-10
6.18946e-17
9.39119e-10
6.09591e-17
9.59909e-10
6.14596e-17
9.59909e-10
6.50598e-17
9.39119e-10
7.35013e-17
8.97379e-10
8.64688e-17
8.34486e-10
1.00065e-16
7.50427e-10
1.10333e-16
6.45696e-10
1.15363e-16
5.21685e-10
1.10214e-16
3.81106e-10
7.55306e-17
2.28653e-10
7.26063e-11
5.84196e-17
7.2606e-11
8.77738e-17
2.28653e-10
9.6283e-17
3.81106e-10
9.34806e-17
5.21685e-10
8.53872e-17
6.45696e-10
7.5207e-17
7.50427e-10
6.61829e-17
8.34486e-10
5.91831e-17
8.97379e-10
5.42245e-17
9.39119e-10
5.14383e-17
9.59909e-10
5.13308e-17
9.59909e-10
5.4963e-17
9.39119e-10
6.21038e-17
8.97379e-10
7.41381e-17
8.34486e-10
9.02267e-17
7.50427e-10
1.01229e-16
6.45696e-10
1.07512e-16
5.21685e-10
1.04408e-16
3.81106e-10
7.25536e-17
2.28653e-10
7.26064e-11
7.47439e-17
7.26059e-11
1.02648e-16
2.28653e-10
1.0741e-16
3.81106e-10
9.76129e-17
5.21685e-10
8.58366e-17
6.45696e-10
7.35423e-17
7.50427e-10
6.26339e-17
8.34486e-10
5.40346e-17
8.97379e-10
4.80123e-17
9.39119e-10
4.4677e-17
9.59909e-10
4.45373e-17
9.59909e-10
4.67199e-17
9.39119e-10
5.11132e-17
8.97379e-10
6.05147e-17
8.34486e-10
7.39367e-17
7.50427e-10
8.46761e-17
6.45696e-10
9.111e-17
5.21685e-10
8.7532e-17
3.81106e-10
6.09887e-17
2.28653e-10
7.26064e-11
1.05261e-16
7.26058e-11
1.07926e-16
2.28653e-10
1.05464e-16
3.81106e-10
9.11708e-17
5.21685e-10
7.77736e-17
6.45696e-10
6.61652e-17
7.50427e-10
5.60703e-17
8.34486e-10
4.81597e-17
8.97379e-10
4.29732e-17
9.39119e-10
4.06574e-17
9.59909e-10
4.03002e-17
9.59909e-10
3.99248e-17
9.39119e-10
4.23024e-17
8.97379e-10
4.8554e-17
8.34486e-10
5.46286e-17
7.50427e-10
6.1564e-17
6.45696e-10
6.56697e-17
5.21685e-10
5.85244e-17
3.81106e-10
3.70652e-17
2.28653e-10
7.26065e-11
5.86887e-17
7.26058e-11
5.98412e-17
2.28653e-10
7.01821e-17
3.81106e-10
6.82087e-17
5.21685e-10
5.93043e-17
6.45696e-10
5.18144e-17
7.50427e-10
4.50342e-17
8.34486e-10
3.94945e-17
8.97379e-10
3.61015e-17
9.39119e-10
3.45495e-17
9.59909e-10
3.23205e-17
9.59909e-10
2.94808e-17
9.39119e-10
2.94293e-17
8.97379e-10
3.06948e-17
8.34486e-10
3.21565e-17
7.50427e-10
3.52302e-17
6.45696e-10
3.5921e-17
5.21685e-10
2.85231e-17
3.81106e-10
1.18756e-17
2.28653e-10
7.26065e-11
-3.95236e-17
7.26058e-11
-2.98058e-18
2.28653e-10
1.88508e-17
3.81106e-10
3.46684e-17
5.21685e-10
3.61295e-17
6.45696e-10
3.34944e-17
7.50427e-10
3.01909e-17
8.34487e-10
2.68622e-17
8.97379e-10
2.42521e-17
9.39119e-10
2.12673e-17
9.59909e-10
1.64615e-17
9.59909e-10
1.22884e-17
9.39119e-10
9.50487e-18
8.97379e-10
6.84551e-18
8.34486e-10
4.70867e-18
7.50427e-10
3.56571e-18
6.45696e-10
2.5882e-18
5.21685e-10
2.58325e-18
3.81106e-10
4.70342e-18
2.28653e-10
7.26065e-11
-2.51739e-17
7.26058e-11
-2.04537e-17
2.28653e-10
-8.89409e-18
3.81106e-10
7.01935e-18
5.21685e-10
1.54324e-17
6.45696e-10
1.55291e-17
7.50427e-10
1.33267e-17
8.34487e-10
1.03794e-17
8.97379e-10
6.42244e-18
9.39119e-10
8.18414e-19
9.59909e-10
-5.51881e-18
9.59909e-10
-1.10757e-17
9.39119e-10
-1.66649e-17
8.97379e-10
-2.32493e-17
8.34486e-10
-3.03407e-17
7.50427e-10
-3.67215e-17
6.45696e-10
-4.0391e-17
5.21685e-10
-3.36865e-17
3.81106e-10
-1.24976e-17
2.28653e-10
7.26065e-11
-9.26127e-18
7.26059e-11
-1.82841e-17
2.28653e-10
-1.97464e-17
3.81106e-10
-1.13231e-17
5.21685e-10
-3.89761e-18
6.45696e-10
-2.43007e-18
7.50427e-10
-4.72269e-18
8.34487e-10
-9.02275e-18
8.97379e-10
-1.53495e-17
9.39119e-10
-2.29686e-17
9.59909e-10
-3.05015e-17
9.59909e-10
-3.8335e-17
9.39119e-10
-4.76274e-17
8.97379e-10
-5.9148e-17
8.34486e-10
-7.2201e-17
7.50427e-10
-8.46917e-17
6.45696e-10
-9.43997e-17
5.21685e-10
-8.77348e-17
3.81106e-10
-5.67536e-17
2.28653e-10
7.26064e-11
-4.03529e-18
7.26059e-11
-1.9148e-17
2.28653e-10
-2.8275e-17
3.81106e-10
-2.7407e-17
5.21685e-10
-2.3783e-17
6.45696e-10
-2.25495e-17
7.50427e-10
-2.46285e-17
8.34487e-10
-2.95498e-17
8.97379e-10
-3.68425e-17
9.39119e-10
-4.58084e-17
9.59909e-10
-5.56205e-17
9.59909e-10
-6.68047e-17
9.39119e-10
-8.05111e-17
8.97379e-10
-9.72819e-17
8.34486e-10
-1.15893e-16
7.50427e-10
-1.32763e-16
6.45696e-10
-1.44761e-16
5.21685e-10
-1.39127e-16
3.81106e-10
-9.41619e-17
2.28653e-10
7.26063e-11
-6.71492e-18
7.26059e-11
-2.65054e-17
2.28653e-10
-4.05158e-17
3.81106e-10
-4.45525e-17
5.21685e-10
-4.37812e-17
6.45696e-10
-4.30534e-17
7.50427e-10
-4.47192e-17
8.34487e-10
-4.94323e-17
8.97379e-10
-5.70411e-17
9.39119e-10
-6.70039e-17
9.59909e-10
-7.9053e-17
9.59909e-10
-9.36324e-17
9.39119e-10
-1.1157e-16
8.97379e-10
-1.32987e-16
8.34486e-10
-1.56297e-16
7.50427e-10
-1.77861e-16
6.45696e-10
-1.8868e-16
5.21685e-10
-1.83757e-16
3.81106e-10
-1.41457e-16
2.28653e-10
7.26062e-11
-1.65608e-17
7.26059e-11
-4.02291e-17
2.28653e-10
-5.65439e-17
3.81106e-10
-6.28576e-17
5.21685e-10
-6.32103e-17
6.45696e-10
-6.23278e-17
7.50427e-10
-6.32169e-17
8.34487e-10
-6.71885e-17
8.97379e-10
-7.45539e-17
9.39119e-10
-8.51079e-17
9.59909e-10
-9.87085e-17
9.59909e-10
-1.15646e-16
9.39119e-10
-1.36312e-16
8.97379e-10
-1.6041e-16
8.34486e-10
-1.86055e-16
7.50427e-10
-2.08627e-16
6.45696e-10
-2.1765e-16
5.21685e-10
-2.02815e-16
3.81106e-10
-1.36938e-16
2.28653e-10
7.2606e-11
-3.07188e-17
7.26059e-11
-5.74839e-17
2.28653e-10
-7.38458e-17
3.81106e-10
-8.03766e-17
5.21685e-10
-8.05138e-17
6.45696e-10
-7.88372e-17
7.50427e-10
-7.86496e-17
8.34487e-10
-8.15935e-17
8.97379e-10
-8.82304e-17
9.39119e-10
-9.85285e-17
9.59909e-10
-1.12352e-16
9.59909e-10
-1.2972e-16
9.39119e-10
-1.50595e-16
8.97379e-10
-1.74283e-16
8.34487e-10
-1.98679e-16
7.50427e-10
-2.18958e-16
6.45696e-10
-2.25446e-16
5.21685e-10
-2.02031e-16
3.81106e-10
-1.37036e-16
2.28653e-10
7.26059e-11
-4.56171e-17
7.2606e-11
-7.42641e-17
2.28653e-10
-8.94159e-17
3.81106e-10
-9.46666e-17
5.21685e-10
-9.38176e-17
6.45696e-10
-9.11263e-17
7.50427e-10
-8.97795e-17
8.34487e-10
-9.14793e-17
8.97379e-10
-9.68344e-17
9.39119e-10
-1.05813e-16
9.59909e-10
-1.18168e-16
9.59909e-10
-1.33624e-16
9.39119e-10
-1.51663e-16
8.97379e-10
-1.70973e-16
8.34487e-10
-1.88852e-16
7.50427e-10
-2.00535e-16
6.45696e-10
-1.95122e-16
5.21685e-10
-1.66541e-16
3.81106e-10
-1.11947e-16
2.28653e-10
7.26058e-11
-5.85147e-17
7.2606e-11
-8.7919e-17
2.28653e-10
-1.01149e-16
3.81106e-10
-1.04149e-16
5.21685e-10
-1.01902e-16
6.45696e-10
-9.81613e-17
7.50427e-10
-9.56712e-17
8.34487e-10
-9.59662e-17
8.97379e-10
-9.95178e-17
9.39119e-10
-1.06171e-16
9.59909e-10
-1.15523e-16
9.59909e-10
-1.27004e-16
9.39119e-10
-1.39597e-16
8.97379e-10
-1.51257e-16
8.34487e-10
-1.58417e-16
7.50427e-10
-1.56407e-16
6.45696e-10
-1.39695e-16
5.21685e-10
-1.06234e-16
3.81106e-10
-5.45438e-17
2.28653e-10
7.26057e-11
-6.81558e-17
7.26061e-11
-9.72309e-17
2.28653e-10
-1.08217e-16
3.81106e-10
-1.08529e-16
5.21685e-10
-1.04561e-16
6.45696e-10
-9.96648e-17
7.50427e-10
-9.60253e-17
8.34487e-10
-9.4831e-17
8.97379e-10
-9.62577e-17
9.39119e-10
-9.99626e-17
9.59909e-10
-1.05381e-16
9.59909e-10
-1.11723e-16
9.39119e-10
-1.17664e-16
8.97379e-10
-1.20908e-16
8.34487e-10
-1.18149e-16
7.50427e-10
-1.06427e-16
6.45696e-10
-8.4707e-17
5.21685e-10
-5.43853e-17
3.81106e-10
-2.21977e-17
2.28652e-10
7.26057e-11
-7.34861e-17
7.26062e-11
-1.01378e-16
2.28653e-10
-1.1017e-16
3.81106e-10
-1.08056e-16
5.21685e-10
-1.02234e-16
6.45696e-10
-9.60639e-17
7.50427e-10
-9.12954e-17
8.34486e-10
-8.86579e-17
8.97379e-10
-8.79403e-17
9.39119e-10
-8.85814e-17
9.59909e-10
-8.98633e-17
9.59909e-10
-9.08669e-17
9.39119e-10
-9.02551e-17
8.97379e-10
-8.61238e-17
8.34487e-10
-7.63712e-17
7.50427e-10
-5.9761e-17
6.45696e-10
-3.82384e-17
5.21685e-10
-1.72361e-17
3.81106e-10
-8.28615e-18
2.28652e-10
7.26057e-11
-7.21437e-17
7.26062e-11
-9.92473e-17
2.28653e-10
-1.0609e-16
3.81106e-10
-1.02467e-16
5.21685e-10
-9.5227e-17
6.45696e-10
-8.79962e-17
7.50427e-10
-8.23262e-17
8.34486e-10
-7.84732e-17
8.97379e-10
-7.58714e-17
9.39119e-10
-7.37539e-17
9.59909e-10
-7.12656e-17
9.59909e-10
-6.74504e-17
9.39119e-10
-6.11884e-17
8.97379e-10
-5.12859e-17
8.34487e-10
-3.68905e-17
7.50427e-10
-1.79944e-17
6.45696e-10
1.3731e-18
5.21685e-10
1.50266e-17
3.81106e-10
1.28351e-17
2.28652e-10
7.26057e-11
-6.45354e-17
7.26063e-11
-9.01861e-17
2.28653e-10
-9.48918e-17
3.81106e-10
-9.0811e-17
5.21685e-10
-8.32481e-17
6.45696e-10
-7.57535e-17
7.50427e-10
-6.97464e-17
8.34486e-10
-6.51137e-17
8.97379e-10
-6.1087e-17
9.39119e-10
-5.67774e-17
9.59909e-10
-5.12539e-17
9.59909e-10
-4.36232e-17
9.39119e-10
-3.31111e-17
8.97379e-10
-1.92328e-17
8.34487e-10
-2.10941e-18
7.50427e-10
1.71591e-17
6.45696e-10
3.39247e-17
5.21685e-10
4.1998e-17
3.81106e-10
3.45835e-17
2.28652e-10
7.26058e-11
-5.25229e-17
7.26063e-11
-7.43864e-17
2.28653e-10
-7.58495e-17
3.81106e-10
-7.19723e-17
5.21685e-10
-6.55792e-17
6.45696e-10
-5.9133e-17
7.50427e-10
-5.36835e-17
8.34486e-10
-4.892e-17
8.97379e-10
-4.40845e-17
9.39119e-10
-3.83099e-17
9.59909e-10
-3.07148e-17
9.59909e-10
-2.05657e-17
9.39119e-10
-7.45306e-18
8.97379e-10
8.41504e-18
8.34487e-10
2.612e-17
7.50427e-10
4.34688e-17
6.45696e-10
5.56327e-17
5.21685e-10
5.65745e-17
3.81106e-10
4.45021e-17
2.28652e-10
7.26058e-11
-3.55755e-17
7.26064e-11
-4.96651e-17
2.28653e-10
-4.82086e-17
3.81106e-10
-4.53577e-17
5.21685e-10
-4.17377e-17
6.45696e-10
-3.78477e-17
7.50427e-10
-3.40341e-17
8.34486e-10
-2.99692e-17
8.97379e-10
-2.50993e-17
9.39119e-10
-1.87345e-17
9.59909e-10
-1.01661e-17
9.59909e-10
1.10587e-18
9.39119e-10
1.50808e-17
8.97379e-10
3.0929e-17
8.34486e-10
4.69611e-17
7.50427e-10
6.00056e-17
6.45696e-10
6.49464e-17
5.21685e-10
5.67609e-17
3.81106e-10
3.77602e-17
2.28653e-10
7.26058e-11
-1.126e-17
7.26064e-11
-1.54742e-17
2.28653e-10
-1.29811e-17
3.81106e-10
-1.20716e-17
5.21685e-10
-1.23927e-17
6.45696e-10
-1.22395e-17
7.50427e-10
-1.10539e-17
8.34486e-10
-8.57943e-18
8.97379e-10
-4.5564e-18
9.39119e-10
1.43297e-18
9.59909e-10
9.83123e-18
9.59909e-10
2.08476e-17
9.39119e-10
3.40743e-17
8.97379e-10
4.82108e-17
8.34486e-10
6.08759e-17
7.50427e-10
6.80768e-17
6.45696e-10
6.4661e-17
5.21685e-10
4.70968e-17
3.81106e-10
2.04321e-17
2.28653e-10
7.26059e-11
1.93239e-17
7.26064e-11
2.45533e-17
2.28653e-10
2.68178e-17
3.81106e-10
2.50346e-17
5.21685e-10
2.03831e-17
6.45696e-10
1.62945e-17
7.50427e-10
1.42031e-17
8.34486e-10
1.43404e-17
8.97379e-10
1.66998e-17
9.39119e-10
2.1403e-17
9.59909e-10
2.85942e-17
9.59909e-10
3.81887e-17
9.39119e-10
4.94815e-17
8.97379e-10
6.08235e-17
8.34486e-10
6.94077e-17
7.50427e-10
7.10114e-17
6.45696e-10
6.10417e-17
5.21685e-10
3.72906e-17
3.81106e-10
6.14877e-18
2.28653e-10
7.26059e-11
4.6189e-17
7.26063e-11
6.45245e-17
2.28653e-10
6.7416e-17
3.81106e-10
6.2404e-17
5.21685e-10
5.36108e-17
6.45696e-10
4.54286e-17
7.50427e-10
3.98876e-17
8.34486e-10
3.7294e-17
8.97379e-10
3.74578e-17
9.39119e-10
4.02344e-17
9.59909e-10
4.55075e-17
9.59909e-10
5.29527e-17
9.39119e-10
6.16582e-17
8.97379e-10
6.98491e-17
8.34486e-10
7.47789e-17
7.50427e-10
7.27712e-17
6.45696e-10
6.04747e-17
5.21685e-10
3.61481e-17
3.81106e-10
5.74449e-18
2.28653e-10
7.26059e-11
7.05416e-17
7.26063e-11
1.0231e-16
2.28653e-10
1.05446e-16
3.81106e-10
9.65573e-17
5.21685e-10
8.40244e-17
6.45696e-10
7.23535e-17
7.50427e-10
6.37076e-17
8.34486e-10
5.84841e-17
8.97379e-10
5.63732e-17
9.39119e-10
5.70371e-17
9.59909e-10
6.01601e-17
9.59909e-10
6.52382e-17
9.39119e-10
7.127e-17
8.97379e-10
7.66301e-17
8.34486e-10
7.9136e-17
7.50427e-10
7.62245e-17
6.45696e-10
6.59824e-17
5.21685e-10
4.64315e-17
3.81106e-10
2.06695e-17
2.28653e-10
7.26059e-11
9.78477e-17
7.26062e-11
1.33902e-16
2.28653e-10
1.35789e-16
3.81106e-10
1.23553e-16
5.21685e-10
1.08315e-16
6.45696e-10
9.42821e-17
7.50427e-10
8.34366e-17
8.34487e-10
7.62156e-17
8.97379e-10
7.22472e-17
9.39119e-10
7.10918e-17
9.59909e-10
7.23024e-17
9.59909e-10
7.52607e-17
9.39119e-10
7.90008e-17
8.97379e-10
8.22697e-17
8.34486e-10
8.37024e-17
7.50427e-10
8.18969e-17
6.45696e-10
7.58047e-17
5.21685e-10
6.30825e-17
3.81106e-10
4.24143e-17
2.28653e-10
7.26059e-11
1.03708e-16
7.26061e-11
1.47568e-16
2.28653e-10
1.51042e-16
3.81106e-10
1.39039e-16
5.21685e-10
1.23571e-16
6.45696e-10
1.0903e-16
7.50427e-10
9.74105e-17
8.34487e-10
8.92362e-17
8.97379e-10
8.42051e-17
9.39119e-10
8.18734e-17
9.59909e-10
8.17294e-17
9.59909e-10
8.31133e-17
9.39119e-10
8.51979e-17
8.97379e-10
8.71838e-17
8.34486e-10
8.8409e-17
7.50427e-10
8.81477e-17
6.45696e-10
8.53247e-17
5.21685e-10
7.74728e-17
3.81106e-10
5.84854e-17
2.28653e-10
7.2606e-11
1.05033e-16
7.2606e-11
1.43684e-16
2.28653e-10
1.50475e-16
3.81106e-10
1.41511e-16
5.21685e-10
1.2833e-16
6.45696e-10
1.15406e-16
7.50427e-10
1.04668e-16
8.34487e-10
9.67823e-17
8.97379e-10
9.16627e-17
9.39119e-10
8.89473e-17
9.59909e-10
8.81261e-17
9.59909e-10
8.85794e-17
9.39119e-10
8.96874e-17
8.97379e-10
9.10335e-17
8.34486e-10
9.22788e-17
7.50427e-10
9.26942e-17
6.45696e-10
9.05923e-17
5.21685e-10
8.35516e-17
3.81106e-10
6.22377e-17
2.28653e-10
7.26061e-11
9.11399e-17
7.26059e-11
1.22422e-16
2.28653e-10
1.33085e-16
3.81106e-10
1.29915e-16
5.21685e-10
1.21701e-16
6.45696e-10
1.12628e-16
7.50427e-10
1.04519e-16
8.34487e-10
9.82478e-17
8.97379e-10
9.40612e-17
9.39119e-10
9.17675e-17
9.59909e-10
9.09426e-17
9.59909e-10
9.10957e-17
9.39119e-10
9.18518e-17
8.97379e-10
9.30177e-17
8.34486e-10
9.41876e-17
7.50427e-10
9.42095e-17
6.45696e-10
9.07958e-17
5.21685e-10
8.13902e-17
3.81106e-10
5.5912e-17
2.28653e-10
7.26061e-11
6.43055e-17
7.26058e-11
8.44924e-17
2.28653e-10
9.78433e-17
3.81106e-10
1.02944e-16
5.21685e-10
1.02673e-16
6.45696e-10
9.98581e-17
7.50427e-10
9.62146e-17
8.34487e-10
9.29409e-17
8.97379e-10
9.07213e-17
9.39119e-10
8.96425e-17
9.59909e-10
8.94682e-17
9.59909e-10
8.99251e-17
9.39119e-10
9.08889e-17
8.97379e-10
9.22439e-17
8.34486e-10
9.33641e-17
7.50427e-10
9.2757e-17
6.45696e-10
8.80355e-17
5.21685e-10
7.63798e-17
3.81106e-10
4.8246e-17
2.28653e-10
7.26062e-11
2.30379e-17
7.26058e-11
3.11182e-17
2.28653e-10
4.69812e-17
3.81106e-10
6.18508e-17
5.21685e-10
7.17818e-17
6.45696e-10
7.715e-17
7.50427e-10
7.95346e-17
8.34487e-10
8.05214e-17
8.97379e-10
8.12378e-17
9.39119e-10
8.21166e-17
9.59909e-10
8.32037e-17
9.59909e-10
8.45014e-17
9.39119e-10
8.61092e-17
8.97379e-10
8.79534e-17
8.34486e-10
8.93547e-17
7.50427e-10
8.89644e-17
6.45696e-10
8.48804e-17
5.21685e-10
7.40902e-17
3.81106e-10
4.7374e-17
2.28653e-10
7.26062e-11
-2.59831e-17
7.26058e-11
-2.60677e-17
2.28653e-10
-9.68023e-18
3.81106e-10
1.32529e-17
5.21685e-10
3.30446e-17
6.45696e-10
4.69292e-17
7.50427e-10
5.59853e-17
8.34487e-10
6.195e-17
8.97379e-10
6.62219e-17
9.39119e-10
6.95539e-17
9.59909e-10
7.22989e-17
9.59909e-10
7.47288e-17
9.39119e-10
7.71397e-17
8.97379e-10
7.96045e-17
8.34486e-10
8.17609e-17
7.50427e-10
8.29538e-17
6.45696e-10
8.20789e-17
5.21685e-10
7.61202e-17
3.81106e-10
5.45489e-17
2.28653e-10
7.26063e-11
-6.93955e-17
7.26059e-11
-7.54399e-17
2.28653e-10
-5.96704e-17
3.81106e-10
-3.26539e-17
5.21685e-10
-6.36554e-18
6.45696e-10
1.42901e-17
7.50427e-10
2.92475e-17
8.34487e-10
3.98813e-17
8.97379e-10
4.75916e-17
9.39119e-10
5.33102e-17
9.59909e-10
5.76204e-17
9.59909e-10
6.10161e-17
9.39119e-10
6.39923e-17
8.97379e-10
6.69347e-17
8.34486e-10
7.01103e-17
7.50427e-10
7.37696e-17
6.45696e-10
7.74951e-17
5.21685e-10
7.82773e-17
3.81106e-10
6.30381e-17
2.28653e-10
7.26063e-11
-9.61961e-17
7.2606e-11
-1.06329e-16
2.28653e-10
-9.23643e-17
3.81106e-10
-6.59795e-17
5.21685e-10
-3.82699e-17
6.45696e-10
-1.45295e-17
7.50427e-10
3.96944e-18
8.34486e-10
1.77856e-17
8.97379e-10
2.7897e-17
9.39119e-10
3.52051e-17
9.59909e-10
4.03979e-17
9.59909e-10
4.41364e-17
9.39119e-10
4.71363e-17
8.97379e-10
5.01899e-17
8.34486e-10
5.41847e-17
7.50427e-10
5.9928e-17
6.45696e-10
6.72479e-17
5.21685e-10
7.32832e-17
3.81106e-10
6.30222e-17
2.28653e-10
7.26064e-11
-9.75785e-17
7.26061e-11
-1.10955e-16
2.28653e-10
-1.02187e-16
3.81106e-10
-8.1268e-17
5.21685e-10
-5.719e-17
6.45696e-10
-3.48365e-17
7.50427e-10
-1.61643e-17
8.34486e-10
-1.56839e-18
8.97379e-10
9.22686e-18
9.39119e-10
1.68148e-17
9.59909e-10
2.18721e-17
9.59909e-10
2.5185e-17
9.39119e-10
2.76831e-17
8.97379e-10
3.04679e-17
8.34486e-10
3.46496e-17
7.50427e-10
4.08898e-17
6.45696e-10
4.87384e-17
5.21685e-10
5.56261e-17
3.81106e-10
4.82114e-17
2.28653e-10
7.26064e-11
-7.42505e-17
7.26061e-11
-9.22949e-17
2.28653e-10
-9.06928e-17
3.81106e-10
-7.92261e-17
5.21685e-10
-6.27237e-17
6.45696e-10
-4.54422e-17
7.50427e-10
-2.9764e-17
8.34486e-10
-1.69089e-17
8.97379e-10
-7.28663e-18
9.39119e-10
-7.44596e-19
9.59909e-10
3.29073e-18
9.59909e-10
5.67167e-18
9.39119e-10
7.44664e-18
8.97379e-10
9.72031e-18
8.34486e-10
1.32744e-17
7.50427e-10
1.8146e-17
6.45696e-10
2.33324e-17
5.21685e-10
2.65303e-17
3.81106e-10
2.05384e-17
2.28653e-10
7.26065e-11
-3.64824e-17
7.26062e-11
-5.65341e-17
2.28653e-10
-6.49644e-17
3.81106e-10
-6.50618e-17
5.21685e-10
-5.83122e-17
6.45696e-10
-4.824e-17
7.50427e-10
-3.76134e-17
8.34486e-10
-2.82778e-17
8.97379e-10
-2.12075e-17
9.39119e-10
-1.65886e-17
9.59909e-10
-1.39902e-17
9.59909e-10
-1.26104e-17
9.39119e-10
-1.15077e-17
8.97379e-10
-9.94558e-18
8.34486e-10
-7.80041e-18
7.50427e-10
-5.6395e-18
6.45696e-10
-4.61152e-18
5.21685e-10
-6.75981e-18
3.81106e-10
-1.14659e-17
2.28653e-10
7.26064e-11
-1.04525e-18
7.26062e-11
-2.18433e-17
2.28653e-10
-3.71884e-17
3.81106e-10
-4.7045e-17
5.21685e-10
-4.94292e-17
6.45696e-10
-4.6655e-17
7.50427e-10
-4.16233e-17
8.34486e-10
-3.64723e-17
8.97379e-10
-3.24491e-17
9.39119e-10
-2.99412e-17
9.59909e-10
-2.86844e-17
9.59909e-10
-2.81029e-17
9.39119e-10
-2.76289e-17
8.97379e-10
-2.70848e-17
8.34486e-10
-2.68666e-17
7.50427e-10
-2.76994e-17
6.45696e-10
-3.02837e-17
5.21685e-10
-3.53405e-17
3.81106e-10
-3.61243e-17
2.28653e-10
7.26064e-11
1.87993e-17
7.26062e-11
7.0026e-19
2.28653e-10
-1.79077e-17
3.81106e-10
-3.29337e-17
5.21685e-10
-4.13539e-17
6.45696e-10
-4.4169e-17
7.50427e-10
-4.38663e-17
8.34486e-10
-4.24303e-17
8.97379e-10
-4.10618e-17
9.39119e-10
-4.0243e-17
9.59909e-10
-3.99587e-17
9.59909e-10
-4.00262e-17
9.39119e-10
-4.03699e-17
8.97379e-10
-4.12301e-17
8.34486e-10
-4.3059e-17
7.50427e-10
-4.61126e-17
6.45696e-10
-5.05675e-17
5.21685e-10
-5.4873e-17
3.81106e-10
-4.91057e-17
2.28653e-10
7.26064e-11
1.78804e-17
7.26061e-11
3.56118e-18
2.28653e-10
-1.32144e-17
3.81106e-10
-2.77184e-17
5.21685e-10
-3.76863e-17
6.45696e-10
-4.31917e-17
7.50427e-10
-4.57237e-17
8.34486e-10