/*--------------------------------*- C++ -*----------------------------------*\
| =========                 |                                                 |
| \\      /  F ield         | OpenFOAM: The Open Source CFD Toolbox           |
|  \\    /   O peration     | Version:  5.x                                   |
|   \\  /    A nd           | Web:      www.OpenFOAM.org                      |
|    \\/     M anipulation  |                                                 |
\*---------------------------------------------------------------------------*/
FoamFile
{
    version     2.0;
    format      ascii;
    class       volVectorField;
    location    "0.3";
    object      U;
}
// * * * * * * * * * * * * * * * * * * * * * * * * * * * * * * * * * * * * * //

dimensions      [0 1 -1 0 0 0 0];

internalField   nonuniform List<vector> 
8000
(
(1.57973e-11 0.00145212 0)
(1.10391e-10 0.00457305 0)
(1.26924e-10 0.00762212 0)
(1.17375e-10 0.0104337 0)
(9.73092e-11 0.0129139 0)
(7.45359e-11 0.0150085 0)
(5.09743e-11 0.0166897 0)
(2.67499e-11 0.0179476 0)
(1.73053e-12 0.0187824 0)
(-2.36956e-11 0.0191982 0)
(-4.86113e-11 0.0191982 0)
(-7.1131e-11 0.0187824 0)
(-8.77925e-11 0.0179476 0)
(-9.3018e-11 0.0166897 0)
(-7.88266e-11 0.0150085 0)
(-3.58576e-11 0.0129139 0)
(4.29394e-11 0.0104337 0)
(1.50214e-10 0.00762212 0)
(2.28483e-10 0.00457306 0)
(8.00333e-11 0.00145213 0)
(1.11608e-10 0.00145212 0)
(3.52302e-10 0.00457305 0)
(3.16775e-10 0.00762212 0)
(2.42144e-10 0.0104337 0)
(1.71639e-10 0.0129139 0)
(1.11121e-10 0.0150085 0)
(5.74282e-11 0.0166897 0)
(5.864e-12 0.0179476 0)
(-4.64309e-11 0.0187824 0)
(-9.98366e-11 0.0191982 0)
(-1.52077e-10 0.0191982 0)
(-1.97579e-10 0.0187824 0)
(-2.26363e-10 0.0179476 0)
(-2.22967e-10 0.0166897 0)
(-1.66746e-10 0.0150085 0)
(-3.58445e-11 0.0129139 0)
(1.82611e-10 0.0104337 0)
(4.68573e-10 0.00762212 0)
(6.92155e-10 0.00457306 0)
(2.45204e-10 0.00145213 0)
(2.41936e-10 0.00145212 0)
(6.05234e-10 0.00457305 0)
(4.45712e-10 0.00762212 0)
(2.75983e-10 0.0104337 0)
(1.49349e-10 0.0129139 0)
(5.69857e-11 0.0150085 0)
(-1.56329e-11 0.0166897 0)
(-8.10852e-11 0.0179476 0)
(-1.4709e-10 0.0187824 0)
(-2.15882e-10 0.0191982 0)
(-2.84608e-10 0.0191982 0)
(-3.44895e-10 0.0187824 0)
(-3.81664e-10 0.0179476 0)
(-3.72336e-10 0.0166897 0)
(-2.88574e-10 0.0150085 0)
(-1.04139e-10 0.0129139 0)
(1.88119e-10 0.0104337 0)
(5.44226e-10 0.00762212 0)
(7.89479e-10 0.00457306 0)
(2.64066e-10 0.00145213 0)
(2.37381e-10 0.00145212 0)
(5.96202e-10 0.00457305 0)
(3.92821e-10 0.00762212 0)
(1.91182e-10 0.0104337 0)
(4.73861e-11 0.0129139 0)
(-5.24005e-11 0.0150085 0)
(-1.29243e-10 0.0166897 0)
(-2.00474e-10 0.0179476 0)
(-2.76525e-10 0.0187824 0)
(-3.60822e-10 0.0191982 0)
(-4.50411e-10 0.0191982 0)
(-5.3551e-10 0.0187824 0)
(-5.98499e-10 0.0179476 0)
(-6.13131e-10 0.0166897 0)
(-5.46787e-10 0.0150085 0)
(-3.7045e-10 0.0129139 0)
(-8.02356e-11 0.0104337 0)
(2.6205e-10 0.00762212 0)
(4.67219e-10 0.00457306 0)
(1.48446e-10 0.00145213 0)
(1.1071e-10 0.00145212 0)
(2.43624e-10 0.00457305 0)
(9.02341e-11 0.00762212 0)
(-5.03596e-11 0.0104337 0)
(-1.46412e-10 0.0129139 0)
(-2.13513e-10 0.0150085 0)
(-2.72083e-10 0.0166897 0)
(-3.38035e-10 0.0179476 0)
(-4.20612e-10 0.0187824 0)
(-5.22683e-10 0.0191982 0)
(-6.41063e-10 0.0191982 0)
(-7.65935e-10 0.0187824 0)
(-8.7948e-10 0.0179476 0)
(-9.54518e-10 0.0166897 0)
(-9.55756e-10 0.0150085 0)
(-8.4733e-10 0.0129139 0)
(-6.11562e-10 0.0104337 0)
(-2.91823e-10 0.00762212 0)
(-3.15913e-11 0.00457306 0)
(1.73426e-11 0.00145213 0)
(-1.03322e-10 0.00145212 0)
(-3.47836e-10 0.00457305 0)
(-3.92028e-10 0.00762212 0)
(-4.06316e-10 0.0104337 0)
(-4.0648e-10 0.0129139 0)
(-4.08916e-10 0.0150085 0)
(-4.29617e-10 0.0166897 0)
(-4.79517e-10 0.0179476 0)
(-5.64151e-10 0.0187824 0)
(-6.84491e-10 0.0191982 0)
(-8.37112e-10 0.0191982 0)
(-1.01334e-09 0.0187824 0)
(-1.19727e-09 0.0179476 0)
(-1.36356e-09 0.0166897 0)
(-1.47674e-09 0.0150085 0)
(-1.49179e-09 0.0129139 0)
(-1.3615e-09 0.0104337 0)
(-1.07877e-09 0.00762212 0)
(-6.52129e-10 0.00457306 0)
(-7.20239e-11 0.00145213 0)
(-3.17049e-10 0.00145212 0)
(-9.44893e-10 0.00457305 0)
(-8.80525e-10 0.00762212 0)
(-7.66989e-10 0.0104337 0)
(-6.66726e-10 0.0129139 0)
(-5.97865e-10 0.0150085 0)
(-5.74148e-10 0.0166897 0)
(-6.02943e-10 0.0179476 0)
(-6.86282e-10 0.0187824 0)
(-8.23271e-10 0.0191982 0)
(-1.01069e-09 0.0191982 0)
(-1.24175e-09 0.0187824 0)
(-1.50412e-09 0.0179476 0)
(-1.77743e-09 0.0166897 0)
(-2.03101e-09 0.0150085 0)
(-2.21805e-09 0.0129139 0)
(-2.27335e-09 0.0104337 0)
(-2.19229e-09 0.00762212 0)
(-1.94856e-09 0.00457306 0)
(-5.51907e-10 0.00145213 0)
(-4.41484e-10 0.00145212 0)
(-1.31417e-09 0.00457305 0)
(-1.20127e-09 0.00762212 0)
(-1.01323e-09 0.0104337 0)
(-8.47874e-10 0.0129139 0)
(-7.28782e-10 0.0150085 0)
(-6.70897e-10 0.0166897 0)
(-6.81818e-10 0.0179476 0)
(-7.63115e-10 0.0187824 0)
(-9.13327e-10 0.0191982 0)
(-1.12981e-09 0.0191982 0)
(-1.40789e-09 0.0187824 0)
(-1.73882e-09 0.0179476 0)
(-2.10774e-09 0.0166897 0)
(-2.49018e-09 0.0150085 0)
(-2.84339e-09 0.0129139 0)
(-3.10091e-09 0.0104337 0)
(-3.25546e-09 0.00762212 0)
(-3.29233e-09 0.00457306 0)
(-1.12129e-09 0.00145212 0)
(-4.22106e-10 0.00145212 0)
(-1.32657e-09 0.00457306 0)
(-1.26116e-09 0.00762212 0)
(-1.07582e-09 0.0104337 0)
(-8.96095e-10 0.0129139 0)
(-7.60711e-10 0.0150085 0)
(-6.89427e-10 0.0166897 0)
(-6.92331e-10 0.0179476 0)
(-7.73154e-10 0.0187824 0)
(-9.31552e-10 0.0191982 0)
(-1.16535e-09 0.0191982 0)
(-1.47121e-09 0.0187824 0)
(-1.84248e-09 0.0179476 0)
(-2.26649e-09 0.0166897 0)
(-2.71858e-09 0.0150085 0)
(-3.15085e-09 0.0129139 0)
(-3.48518e-09 0.0104337 0)
(-3.61893e-09 0.00762212 0)
(-3.30516e-09 0.00457305 0)
(-9.34417e-10 0.00145212 0)
(-2.85947e-10 0.00145212 0)
(-1.04678e-09 0.00457306 0)
(-1.09311e-09 0.00762212 0)
(-9.64034e-10 0.0104337 0)
(-8.0493e-10 0.0129139 0)
(-6.79645e-10 0.0150085 0)
(-6.15004e-10 0.0166897 0)
(-6.21501e-10 0.0179476 0)
(-7.03692e-10 0.0187824 0)
(-8.63047e-10 0.0191982 0)
(-1.09832e-09 0.0191982 0)
(-1.4062e-09 0.0187824 0)
(-1.78028e-09 0.0179476 0)
(-2.20688e-09 0.0166897 0)
(-2.65785e-09 0.0150085 0)
(-3.08409e-09 0.0129139 0)
(-3.40442e-09 0.0104337 0)
(-3.46487e-09 0.00762212 0)
(-3.03961e-09 0.00457305 0)
(-8.34913e-10 0.00145212 0)
(-1.92933e-10 0.00145213 0)
(-7.62252e-10 0.00457306 0)
(-8.28546e-10 0.00762212 0)
(-7.35659e-10 0.0104337 0)
(-6.05684e-10 0.0129139 0)
(-5.02373e-10 0.0150085 0)
(-4.54626e-10 0.0166897 0)
(-4.71546e-10 0.0179476 0)
(-5.55455e-10 0.0187824 0)
(-7.07384e-10 0.0191982 0)
(-9.26801e-10 0.0191982 0)
(-1.21024e-09 0.0187824 0)
(-1.54961e-09 0.0179476 0)
(-1.92744e-09 0.0166897 0)
(-2.3113e-09 0.0150085 0)
(-2.6514e-09 0.0129139 0)
(-2.87308e-09 0.0104337 0)
(-2.83451e-09 0.00762212 0)
(-2.4788e-09 0.00457305 0)
(-7.32988e-10 0.00145212 0)
(-1.88656e-10 0.00145213 0)
(-5.4836e-10 0.00457306 0)
(-5.06854e-10 0.00762212 0)
(-4.15117e-10 0.0104337 0)
(-3.20608e-10 0.0129139 0)
(-2.52597e-10 0.0150085 0)
(-2.2962e-10 0.0166897 0)
(-2.59123e-10 0.0179476 0)
(-3.42796e-10 0.0187824 0)
(-4.80366e-10 0.0191982 0)
(-6.7016e-10 0.0191982 0)
(-9.07672e-10 0.0187824 0)
(-1.18294e-09 0.0179476 0)
(-1.4758e-09 0.0166897 0)
(-1.75017e-09 0.0150085 0)
(-1.95007e-09 0.0129139 0)
(-2.00076e-09 0.0104337 0)
(-1.78604e-09 0.00762212 0)
(-1.26827e-09 0.00457305 0)
(-2.68369e-10 0.00145212 0)
(-4.04183e-11 0.00145213 0)
(-5.41354e-11 0.00457306 0)
(-2.36443e-11 0.00762212 0)
(3.18144e-12 0.0104337 0)
(3.30028e-11 0.0129139 0)
(4.89845e-11 0.0150085 0)
(3.87742e-11 0.0166897 0)
(-5.54811e-12 0.0179476 0)
(-8.67274e-11 0.0187824 0)
(-2.04705e-10 0.0191982 0)
(-3.57201e-10 0.0191982 0)
(-5.38792e-10 0.0187824 0)
(-7.38993e-10 0.0179476 0)
(-9.37708e-10 0.0166897 0)
(-1.09705e-09 0.0150085 0)
(-1.1596e-09 0.0129139 0)
(-1.07038e-09 0.0104337 0)
(-7.75432e-10 0.00762212 0)
(-2.26883e-10 0.00457305 0)
(9.38656e-11 0.00145212 0)
(2.3837e-10 0.00145213 0)
(6.38378e-10 0.00457306 0)
(5.20909e-10 0.00762212 0)
(4.40912e-10 0.0104337 0)
(3.98301e-10 0.0129139 0)
(3.62032e-10 0.0150085 0)
(3.20003e-10 0.0166897 0)
(2.63662e-10 0.0179476 0)
(1.88892e-10 0.0187824 0)
(9.50946e-11 0.0191982 0)
(-1.56233e-11 0.0191982 0)
(-1.38544e-10 0.0187824 0)
(-2.6487e-10 0.0179476 0)
(-3.75399e-10 0.0166897 0)
(-4.33841e-10 0.0150085 0)
(-4.02077e-10 0.0129139 0)
(-2.78005e-10 0.0104337 0)
(-7.85923e-11 0.00762212 0)
(2.10892e-10 0.00457305 0)
(1.50398e-10 0.00145212 0)
(3.90576e-10 0.00145213 0)
(1.03483e-09 0.00457306 0)
(8.71142e-10 0.00762212 0)
(7.62566e-10 0.0104337 0)
(6.93138e-10 0.0129139 0)
(6.33785e-10 0.0150085 0)
(5.77666e-10 0.0166897 0)
(5.20382e-10 0.0179476 0)
(4.58964e-10 0.0187824 0)
(3.93717e-10 0.0191982 0)
(3.27304e-10 0.0191982 0)
(2.63402e-10 0.0187824 0)
(2.0905e-10 0.0179476 0)
(1.81405e-10 0.0166897 0)
(2.05562e-10 0.0150085 0)
(2.81538e-10 0.0129139 0)
(3.52896e-10 0.0104337 0)
(3.57422e-10 0.00762212 0)
(2.49222e-10 0.00457305 0)
(2.53529e-11 0.00145212 0)
(2.47859e-10 0.00145212 0)
(8.59436e-10 0.00457306 0)
(9.0873e-10 0.00762212 0)
(8.89308e-10 0.0104337 0)
(8.6228e-10 0.0129139 0)
(8.27307e-10 0.0150085 0)
(7.86416e-10 0.0166897 0)
(7.44338e-10 0.0179476 0)
(7.04326e-10 0.0187824 0)
(6.70978e-10 0.0191982 0)
(6.49318e-10 0.0191982 0)
(6.43402e-10 0.0187824 0)
(6.59242e-10 0.0179476 0)
(7.06971e-10 0.0166897 0)
(7.89244e-10 0.0150085 0)
(8.81804e-10 0.0129139 0)
(8.98601e-10 0.0104337 0)
(7.80098e-10 0.00762212 0)
(4.92698e-10 0.00457305 0)
(7.22364e-11 0.00145212 0)
(1.41068e-10 0.00145212 0)
(5.80997e-10 0.00457306 0)
(7.65949e-10 0.00762212 0)
(8.56002e-10 0.0104337 0)
(9.10693e-10 0.0129139 0)
(9.36734e-10 0.0150085 0)
(9.37184e-10 0.0166897 0)
(9.25465e-10 0.0179476 0)
(9.14041e-10 0.0187824 0)
(9.14536e-10 0.0191982 0)
(9.36764e-10 0.0191982 0)
(9.86443e-10 0.0187824 0)
(1.06363e-09 0.0179476 0)
(1.16416e-09 0.0166897 0)
(1.27363e-09 0.0150085 0)
(1.36701e-09 0.0129139 0)
(1.37915e-09 0.0104337 0)
(1.22128e-09 0.00762212 0)
(8.48974e-10 0.00457305 0)
(1.79058e-10 0.00145212 0)
(2.69759e-11 0.00145212 0)
(2.20883e-10 0.00457306 0)
(5.09143e-10 0.00762212 0)
(7.27917e-10 0.0104337 0)
(8.83437e-10 0.0129139 0)
(9.85963e-10 0.0150085 0)
(1.04012e-09 0.0166897 0)
(1.06559e-09 0.0179476 0)
(1.08422e-09 0.0187824 0)
(1.11605e-09 0.0191982 0)
(1.177e-09 0.0191982 0)
(1.27365e-09 0.0187824 0)
(1.39678e-09 0.0179476 0)
(1.52336e-09 0.0166897 0)
(1.63029e-09 0.0150085 0)
(1.69783e-09 0.0129139 0)
(1.72418e-09 0.0104337 0)
(1.60592e-09 0.00762212 0)
(1.2228e-09 0.00457305 0)
(3.01128e-10 0.00145212 0)
(-1.92052e-10 0.00145212 0)
(-2.01332e-10 0.00457305 0)
(2.94582e-10 0.00762212 0)
(6.35221e-10 0.0104337 0)
(8.6507e-10 0.0129139 0)
(1.02314e-09 0.0150085 0)
(1.12054e-09 0.0166897 0)
(1.17611e-09 0.0179476 0)
(1.21669e-09 0.0187824 0)
(1.26883e-09 0.0191982 0)
(1.35501e-09 0.0191982 0)
(1.4837e-09 0.0187824 0)
(1.63731e-09 0.0179476 0)
(1.77993e-09 0.0166897 0)
(1.89242e-09 0.0150085 0)
(1.95385e-09 0.0129139 0)
(1.97144e-09 0.0104337 0)
(1.8666e-09 0.00762212 0)
(1.51546e-09 0.00457305 0)
(4.07656e-10 0.00145212 0)
(-1.7826e-10 0.00145212 0)
(-7.35255e-11 0.00457305 0)
(4.50181e-10 0.00762212 0)
(7.63351e-10 0.0104337 0)
(9.53331e-10 0.0129139 0)
(1.10011e-09 0.0150085 0)
(1.20387e-09 0.0166897 0)
(1.26889e-09 0.0179476 0)
(1.31606e-09 0.0187824 0)
(1.37122e-09 0.0191982 0)
(1.4614e-09 0.0191982 0)
(1.59761e-09 0.0187824 0)
(1.7591e-09 0.0179476 0)
(1.91369e-09 0.0166897 0)
(2.0561e-09 0.0150085 0)
(2.16038e-09 0.0129139 0)
(2.17417e-09 0.0104337 0)
(2.03791e-09 0.00762212 0)
(1.70937e-09 0.00457305 0)
(4.78592e-10 0.00145212 0)
(3.08643e-10 0.00145212 0)
(8.66628e-10 0.00457305 0)
(9.81977e-10 0.00762212 0)
(1.07679e-09 0.0104337 0)
(1.1364e-09 0.0129139 0)
(1.21612e-09 0.0150085 0)
(1.29015e-09 0.0166897 0)
(1.34297e-09 0.0179476 0)
(1.38287e-09 0.0187824 0)
(1.4269e-09 0.0191982 0)
(1.50091e-09 0.0191982 0)
(1.61833e-09 0.0187824 0)
(1.76428e-09 0.0179476 0)
(1.91872e-09 0.0166897 0)
(2.07876e-09 0.0150085 0)
(2.2305e-09 0.0129139 0)
(2.29071e-09 0.0104337 0)
(2.17963e-09 0.00762212 0)
(1.8707e-09 0.00457305 0)
(5.25254e-10 0.00145212 0)
(4.18297e-10 0.00145212 0)
(1.21997e-09 0.00457305 0)
(1.26316e-09 0.00762212 0)
(1.29949e-09 0.0104337 0)
(1.31349e-09 0.0129139 0)
(1.32876e-09 0.0150085 0)
(1.35639e-09 0.0166897 0)
(1.38212e-09 0.0179476 0)
(1.40653e-09 0.0187824 0)
(1.43526e-09 0.0191982 0)
(1.48175e-09 0.0191982 0)
(1.56108e-09 0.0187824 0)
(1.6773e-09 0.0179476 0)
(1.83356e-09 0.0166897 0)
(2.01952e-09 0.0150085 0)
(2.21512e-09 0.0129139 0)
(2.337e-09 0.0104337 0)
(2.2954e-09 0.00762212 0)
(2.01475e-09 0.00457305 0)
(5.56914e-10 0.00145212 0)
(2.38483e-10 0.00145212 0)
(1.00445e-09 0.00457305 0)
(1.31578e-09 0.00762212 0)
(1.46722e-09 0.0104337 0)
(1.4764e-09 0.0129139 0)
(1.42975e-09 0.0150085 0)
(1.39254e-09 0.0166897 0)
(1.37102e-09 0.0179476 0)
(1.36453e-09 0.0187824 0)
(1.37033e-09 0.0191982 0)
(1.38629e-09 0.0191982 0)
(1.42981e-09 0.0187824 0)
(1.53737e-09 0.0179476 0)
(1.72694e-09 0.0166897 0)
(1.95972e-09 0.0150085 0)
(2.19035e-09 0.0129139 0)
(2.35006e-09 0.0104337 0)
(2.37284e-09 0.00762212 0)
(2.12513e-09 0.00457306 0)
(5.78459e-10 0.00145212 0)
(-2.27369e-11 0.00145212 0)
(7.76287e-10 0.00457305 0)
(1.46542e-09 0.00762212 0)
(1.67837e-09 0.0104337 0)
(1.64865e-09 0.0129139 0)
(1.5296e-09 0.0150085 0)
(1.40937e-09 0.0166897 0)
(1.31743e-09 0.0179476 0)
(1.2555e-09 0.0187824 0)
(1.22135e-09 0.0191982 0)
(1.21302e-09 0.0191982 0)
(1.24771e-09 0.0187824 0)
(1.36463e-09 0.0179476 0)
(1.58508e-09 0.0166897 0)
(1.86616e-09 0.0150085 0)
(2.1202e-09 0.0129139 0)
(2.29137e-09 0.0104337 0)
(2.36799e-09 0.00762212 0)
(2.16454e-09 0.00457306 0)
(5.89731e-10 0.00145213 0)
(4.44018e-10 0.00145212 0)
(1.64263e-09 0.00457305 0)
(1.94493e-09 0.00762212 0)
(1.94314e-09 0.0104337 0)
(1.80194e-09 0.0129139 0)
(1.60451e-09 0.0150085 0)
(1.40565e-09 0.0166897 0)
(1.24334e-09 0.0179476 0)
(1.12348e-09 0.0187824 0)
(1.04563e-09 0.0191982 0)
(1.01491e-09 0.0191982 0)
(1.04521e-09 0.0187824 0)
(1.148e-09 0.0179476 0)
(1.34603e-09 0.0166897 0)
(1.64452e-09 0.0150085 0)
(1.92938e-09 0.0129139 0)
(2.11971e-09 0.0104337 0)
(2.22928e-09 0.00762212 0)
(2.05962e-09 0.00457306 0)
(5.6992e-10 0.00145213 0)
(6.14469e-10 0.00145212 0)
(2.06903e-09 0.00457305 0)
(2.18911e-09 0.00762212 0)
(2.08226e-09 0.0104337 0)
(1.84149e-09 0.0129139 0)
(1.58925e-09 0.0150085 0)
(1.35193e-09 0.0166897 0)
(1.15452e-09 0.0179476 0)
(1.00749e-09 0.0187824 0)
(9.1453e-10 0.0191982 0)
(8.80692e-10 0.0191982 0)
(8.986e-10 0.0187824 0)
(9.59177e-10 0.0179476 0)
(1.09973e-09 0.0166897 0)
(1.34375e-09 0.0150085 0)
(1.59999e-09 0.0129139 0)
(1.79087e-09 0.0104337 0)
(1.88354e-09 0.00762212 0)
(1.70847e-09 0.00457306 0)
(4.76338e-10 0.00145213 0)
(9.80116e-10 0.00145212 0)
(2.49843e-09 0.00457305 0)
(2.20922e-09 0.00762212 0)
(1.99063e-09 0.0104337 0)
(1.69353e-09 0.0129139 0)
(1.43225e-09 0.0150085 0)
(1.21222e-09 0.0166897 0)
(1.03032e-09 0.0179476 0)
(8.98954e-10 0.0187824 0)
(8.26602e-10 0.0191982 0)
(8.02672e-10 0.0191982 0)
(7.93873e-10 0.0187824 0)
(8.09386e-10 0.0179476 0)
(8.95916e-10 0.0166897 0)
(1.03036e-09 0.0150085 0)
(1.17482e-09 0.0129139 0)
(1.30446e-09 0.0104337 0)
(1.31087e-09 0.00762212 0)
(1.0751e-09 0.00457306 0)
(2.71619e-10 0.00145213 0)
(5.05512e-10 0.00145212 0)
(1.34827e-09 0.00457305 0)
(1.34674e-09 0.00762212 0)
(1.4163e-09 0.0104337 0)
(1.29309e-09 0.0129139 0)
(1.11242e-09 0.0150085 0)
(9.62206e-10 0.0166897 0)
(8.36712e-10 0.0179476 0)
(7.47903e-10 0.0187824 0)
(7.02324e-10 0.0191982 0)
(6.67576e-10 0.0191982 0)
(6.13694e-10 0.0187824 0)
(5.80453e-10 0.0179476 0)
(5.96066e-10 0.0166897 0)
(6.28489e-10 0.0150085 0)
(6.81929e-10 0.0129139 0)
(7.35435e-10 0.0104337 0)
(6.73536e-10 0.00762212 0)
(4.37706e-10 0.00457306 0)
(7.29091e-11 0.00145213 0)
(-4.56525e-10 0.00145212 0)
(-5.40314e-10 0.00457305 0)
(1.46085e-10 0.00762212 0)
(5.82067e-10 0.0104337 0)
(7.45245e-10 0.0129139 0)
(7.11171e-10 0.0150085 0)
(6.38822e-10 0.0166897 0)
(5.68146e-10 0.0179476 0)
(5.0931e-10 0.0187824 0)
(4.5657e-10 0.0191982 0)
(3.795e-10 0.0191982 0)
(2.85182e-10 0.0187824 0)
(2.14339e-10 0.0179476 0)
(1.63617e-10 0.0166897 0)
(1.15436e-10 0.0150085 0)
(8.41997e-11 0.0129139 0)
(6.53962e-11 0.0104337 0)
(4.62974e-11 0.00762212 0)
(5.5243e-11 0.00457306 0)
(4.77517e-11 0.00145213 0)
(-2.48499e-10 0.00145212 0)
(-5.82659e-10 0.00457305 0)
(-3.16756e-10 0.00762212 0)
(5.62447e-13 0.0104337 0)
(2.58474e-10 0.0129139 0)
(3.31463e-10 0.0150085 0)
(2.98484e-10 0.0166897 0)
(2.41314e-10 0.0179476 0)
(1.71648e-10 0.0187824 0)
(7.68444e-11 0.0191982 0)
(-4.48119e-11 0.0191982 0)
(-1.66254e-10 0.0187824 0)
(-2.75015e-10 0.0179476 0)
(-3.94316e-10 0.0166897 0)
(-5.34034e-10 0.0150085 0)
(-6.74676e-10 0.0129139 0)
(-7.92157e-10 0.0104337 0)
(-7.88899e-10 0.00762212 0)
(-5.4335e-10 0.00457306 0)
(-6.59697e-11 0.00145213 0)
(-6.40053e-11 0.00145212 0)
(-3.34862e-10 0.00457305 0)
(-4.18466e-10 0.00762212 0)
(-3.24584e-10 0.0104337 0)
(-1.34564e-10 0.0129139 0)
(-4.10141e-11 0.0150085 0)
(-5.74958e-11 0.0166897 0)
(-1.28204e-10 0.0179476 0)
(-2.36129e-10 0.0187824 0)
(-3.77805e-10 0.0191982 0)
(-5.32234e-10 0.0191982 0)
(-6.84673e-10 0.0187824 0)
(-8.51008e-10 0.0179476 0)
(-1.05784e-09 0.0166897 0)
(-1.3087e-09 0.0150085 0)
(-1.57686e-09 0.0129139 0)
(-1.83027e-09 0.0104337 0)
(-1.92541e-09 0.00762212 0)
(-1.64779e-09 0.00457306 0)
(-4.31046e-10 0.00145213 0)
(-5.29665e-12 0.00145212 0)
(-2.47434e-10 0.00457305 0)
(-5.12941e-10 0.00762212 0)
(-5.87499e-10 0.0104337 0)
(-5.10874e-10 0.0129139 0)
(-4.47149e-10 0.0150085 0)
(-4.56197e-10 0.0166897 0)
(-5.28845e-10 0.0179476 0)
(-6.53614e-10 0.0187824 0)
(-8.19722e-10 0.0191982 0)
(-1.00855e-09 0.0191982 0)
(-1.21487e-09 0.0187824 0)
(-1.45933e-09 0.0179476 0)
(-1.76487e-09 0.0166897 0)
(-2.12691e-09 0.0150085 0)
(-2.49981e-09 0.0129139 0)
(-2.82696e-09 0.0104337 0)
(-2.97907e-09 0.00762212 0)
(-2.69282e-09 0.00457306 0)
(-7.48936e-10 0.00145213 0)
(-2.03141e-11 0.00145212 0)
(-3.47529e-10 0.00457305 0)
(-7.09388e-10 0.00762212 0)
(-8.86488e-10 0.0104337 0)
(-8.93459e-10 0.0129139 0)
(-8.59713e-10 0.0150085 0)
(-8.63033e-10 0.0166897 0)
(-9.26467e-10 0.0179476 0)
(-1.05147e-09 0.0187824 0)
(-1.22963e-09 0.0191982 0)
(-1.44973e-09 0.0191982 0)
(-1.71252e-09 0.0187824 0)
(-2.03464e-09 0.0179476 0)
(-2.4312e-09 0.0166897 0)
(-2.89173e-09 0.0150085 0)
(-3.36138e-09 0.0129139 0)
(-3.7254e-09 0.0104337 0)
(-3.9031e-09 0.00762212 0)
(-3.76921e-09 0.00457306 0)
(-1.19532e-09 0.00145213 0)
(-9.78542e-11 0.00145212 0)
(-6.13356e-10 0.00457305 0)
(-1.01327e-09 0.00762212 0)
(-1.2309e-09 0.0104337 0)
(-1.27649e-09 0.0129139 0)
(-1.2521e-09 0.0150085 0)
(-1.24223e-09 0.0166897 0)
(-1.28766e-09 0.0179476 0)
(-1.40134e-09 0.0187824 0)
(-1.58172e-09 0.0191982 0)
(-1.82291e-09 0.0191982 0)
(-2.12611e-09 0.0187824 0)
(-2.50109e-09 0.0179476 0)
(-2.95369e-09 0.0166897 0)
(-3.46767e-09 0.0150085 0)
(-3.98149e-09 0.0129139 0)
(-4.34398e-09 0.0104337 0)
(-4.39227e-09 0.00762212 0)
(-3.91171e-09 0.00457305 0)
(-1.09208e-09 0.00145212 0)
(-2.15074e-10 0.00145212 0)
(-9.73341e-10 0.00457305 0)
(-1.369e-09 0.00762212 0)
(-1.57898e-09 0.0104337 0)
(-1.62679e-09 0.0129139 0)
(-1.59318e-09 0.0150085 0)
(-1.56292e-09 0.0166897 0)
(-1.58546e-09 0.0179476 0)
(-1.68032e-09 0.0187824 0)
(-1.85023e-09 0.0191982 0)
(-2.09157e-09 0.0191982 0)
(-2.40309e-09 0.0187824 0)
(-2.78685e-09 0.0179476 0)
(-3.23956e-09 0.0166897 0)
(-3.73918e-09 0.0150085 0)
(-4.22311e-09 0.0129139 0)
(-4.53633e-09 0.0104337 0)
(-4.46071e-09 0.00762212 0)
(-3.8598e-09 0.00457305 0)
(-1.09288e-09 0.00145212 0)
(-3.43654e-10 0.00145212 0)
(-1.34145e-09 0.00457305 0)
(-1.70367e-09 0.00762212 0)
(-1.87692e-09 0.0104337 0)
(-1.90265e-09 0.0129139 0)
(-1.85037e-09 0.0150085 0)
(-1.79821e-09 0.0166897 0)
(-1.79608e-09 0.0179476 0)
(-1.86523e-09 0.0187824 0)
(-2.00917e-09 0.0191982 0)
(-2.2236e-09 0.0191982 0)
(-2.50341e-09 0.0187824 0)
(-2.84263e-09 0.0179476 0)
(-3.22642e-09 0.0166897 0)
(-3.61935e-09 0.0150085 0)
(-3.94765e-09 0.0129139 0)
(-4.04828e-09 0.0104337 0)
(-3.76825e-09 0.00762212 0)
(-3.11918e-09 0.00457305 0)
(-8.72983e-10 0.00145212 0)
(-4.58557e-10 0.00145212 0)
(-1.65483e-09 0.00457305 0)
(-1.96745e-09 0.00762212 0)
(-2.08838e-09 0.0104337 0)
(-2.07688e-09 0.0129139 0)
(-2.00162e-09 0.0150085 0)
(-1.92858e-09 0.0166897 0)
(-1.90145e-09 0.0179476 0)
(-1.93889e-09 0.0187824 0)
(-2.04213e-09 0.0191982 0)
(-2.20445e-09 0.0191982 0)
(-2.41656e-09 0.0187824 0)
(-2.66454e-09 0.0179476 0)
(-2.92011e-09 0.0166897 0)
(-3.12879e-09 0.0150085 0)
(-3.20803e-09 0.0129139 0)
(-3.04041e-09 0.0104337 0)
(-2.5397e-09 0.00762212 0)
(-1.74544e-09 0.00457305 0)
(-3.57948e-10 0.00145212 0)
(-5.47197e-10 0.00145212 0)
(-1.88499e-09 0.00457305 0)
(-2.13931e-09 0.00762212 0)
(-2.20191e-09 0.0104337 0)
(-2.14506e-09 0.0129139 0)
(-2.04241e-09 0.0150085 0)
(-1.9481e-09 0.0166897 0)
(-1.89594e-09 0.0179476 0)
(-1.89828e-09 0.0187824 0)
(-1.95168e-09 0.0191982 0)
(-2.04624e-09 0.0191982 0)
(-2.16902e-09 0.0187824 0)
(-2.30059e-09 0.0179476 0)
(-2.40584e-09 0.0166897 0)
(-2.42718e-09 0.0150085 0)
(-2.29694e-09 0.0129139 0)
(-1.9616e-09 0.0104337 0)
(-1.41445e-09 0.00762212 0)
(-7.73414e-10 0.00457305 0)
(-1.08701e-10 0.00145211 0)
(-5.98304e-10 0.00145212 0)
(-2.00904e-09 0.00457305 0)
(-2.20612e-09 0.00762212 0)
(-2.21519e-09 0.0104337 0)
(-2.11471e-09 0.0129139 0)
(-1.98192e-09 0.0150085 0)
(-1.86544e-09 0.0166897 0)
(-1.78941e-09 0.0179476 0)
(-1.7573e-09 0.0187824 0)
(-1.75961e-09 0.0191982 0)
(-1.78291e-09 0.0191982 0)
(-1.81134e-09 0.0187824 0)
(-1.82345e-09 0.0179476 0)
(-1.78676e-09 0.0166897 0)
(-1.65751e-09 0.0150085 0)
(-1.39441e-09 0.0129139 0)
(-9.96624e-10 0.0104337 0)
(-5.3512e-10 0.00762212 0)
(-1.98422e-10 0.00457305 0)
(-3.26176e-11 0.00145211 0)
(-5.87146e-10 0.00145212 0)
(-1.98407e-09 0.00457305 0)
(-2.14553e-09 0.00762212 0)
(-2.11568e-09 0.0104337 0)
(-1.98679e-09 0.0129139 0)
(-1.83034e-09 0.0150085 0)
(-1.69578e-09 0.0166897 0)
(-1.6004e-09 0.0179476 0)
(-1.5387e-09 0.0187824 0)
(-1.49545e-09 0.0191982 0)
(-1.45385e-09 0.0191982 0)
(-1.39598e-09 0.0187824 0)
(-1.30139e-09 0.0179476 0)
(-1.14618e-09 0.0166897 0)
(-9.05971e-10 0.0150085 0)
(-5.64442e-10 0.0129139 0)
(-1.56029e-10 0.0104337 0)
(2.18632e-10 0.00762212 0)
(3.81255e-10 0.00457305 0)
(1.21804e-10 0.00145211 0)
(-5.20339e-10 0.00145213 0)
(-1.80531e-09 0.00457306 0)
(-1.93873e-09 0.00762212 0)
(-1.8817e-09 0.0104337 0)
(-1.74836e-09 0.0129139 0)
(-1.58823e-09 0.0150085 0)
(-1.44907e-09 0.0166897 0)
(-1.34383e-09 0.0179476 0)
(-1.261e-09 0.0187824 0)
(-1.18205e-09 0.0191982 0)
(-1.08817e-09 0.0191982 0)
(-9.60839e-10 0.0187824 0)
(-7.82997e-10 0.0179476 0)
(-5.41046e-10 0.0166897 0)
(-2.28215e-10 0.0150085 0)
(1.49764e-10 0.0129139 0)
(5.38554e-10 0.0104337 0)
(8.3643e-10 0.00762212 0)
(9.17567e-10 0.00457305 0)
(2.9988e-10 0.00145211 0)
(-4.21434e-10 0.00145213 0)
(-1.49297e-09 0.00457306 0)
(-1.57811e-09 0.00762212 0)
(-1.49428e-09 0.0104337 0)
(-1.38035e-09 0.0129139 0)
(-1.2465e-09 0.0150085 0)
(-1.12516e-09 0.0166897 0)
(-1.0248e-09 0.0179476 0)
(-9.32633e-10 0.0187824 0)
(-8.30797e-10 0.0191982 0)
(-7.01055e-10 0.0191982 0)
(-5.26475e-10 0.0187824 0)
(-2.94733e-10 0.0179476 0)
(-2.73328e-12 0.0166897 0)
(3.40688e-10 0.0150085 0)
(7.08926e-10 0.0129139 0)
(1.03108e-09 0.0104337 0)
(1.20739e-09 0.00762212 0)
(1.18188e-09 0.00457305 0)
(3.75848e-10 0.00145212 0)
(-2.86826e-10 0.00145213 0)
(-1.01373e-09 0.00457306 0)
(-1.03229e-09 0.00762212 0)
(-9.4103e-10 0.0104337 0)
(-8.72578e-10 0.0129139 0)
(-7.9748e-10 0.0150085 0)
(-7.20206e-10 0.0166897 0)
(-6.4311e-10 0.0179476 0)
(-5.56779e-10 0.0187824 0)
(-4.47856e-10 0.0191982 0)
(-3.01456e-10 0.0191982 0)
(-1.04277e-10 0.0187824 0)
(1.49945e-10 0.0179476 0)
(4.54052e-10 0.0166897 0)
(7.84944e-10 0.0150085 0)
(1.09641e-09 0.0129139 0)
(1.30073e-09 0.0104337 0)
(1.29823e-09 0.00762212 0)
(1.08191e-09 0.00457305 0)
(2.97153e-10 0.00145212 0)
(-9.20245e-11 0.00145213 0)
(-3.33846e-10 0.00457306 0)
(-3.05005e-10 0.00762212 0)
(-2.46019e-10 0.0104337 0)
(-2.44228e-10 0.0129139 0)
(-2.50939e-10 0.0150085 0)
(-2.39467e-10 0.0166897 0)
(-2.04058e-10 0.0179476 0)
(-1.40732e-10 0.0187824 0)
(-4.26649e-11 0.0191982 0)
(9.96975e-11 0.0191982 0)
(2.94348e-10 0.0187824 0)
(5.40829e-10 0.0179476 0)
(8.23355e-10 0.0166897 0)
(1.10696e-09 0.0150085 0)
(1.32829e-09 0.0129139 0)
(1.38698e-09 0.0104337 0)
(1.18623e-09 0.00762212 0)
(7.49125e-10 0.00457305 0)
(1.29581e-10 0.00145212 0)
(1.50395e-10 0.00145213 0)
(4.82558e-10 0.00457306 0)
(5.35906e-10 0.00762212 0)
(5.31762e-10 0.0104337 0)
(4.55341e-10 0.0129139 0)
(3.59128e-10 0.0150085 0)
(2.93635e-10 0.0166897 0)
(2.73466e-10 0.0179476 0)
(2.98258e-10 0.0187824 0)
(3.68384e-10 0.0191982 0)
(4.87343e-10 0.0191982 0)
(6.57259e-10 0.0187824 0)
(8.71836e-10 0.0179476 0)
(1.10895e-09 0.0166897 0)
(1.32554e-09 0.0150085 0)
(1.44978e-09 0.0129139 0)
(1.38227e-09 0.0104337 0)
(1.0369e-09 0.00762212 0)
(4.54667e-10 0.00457305 0)
(-2.24939e-12 0.00145212 0)
(3.59778e-10 0.00145213 0)
(1.26307e-09 0.00457306 0)
(1.38379e-09 0.00762212 0)
(1.32027e-09 0.0104337 0)
(1.16184e-09 0.0129139 0)
(9.80286e-10 0.0150085 0)
(8.3812e-10 0.0166897 0)
(7.56585e-10 0.0179476 0)
(7.33354e-10 0.0187824 0)
(7.6368e-10 0.0191982 0)
(8.45544e-10 0.0191982 0)
(9.75906e-10 0.0187824 0)
(1.14391e-09 0.0179476 0)
(1.32396e-09 0.0166897 0)
(1.47161e-09 0.0150085 0)
(1.5199e-09 0.0129139 0)
(1.3882e-09 0.0104337 0)
(1.01043e-09 0.00762212 0)
(4.30273e-10 0.00457305 0)
(-3.28964e-12 0.00145212 0)
(5.53151e-10 0.00145213 0)
(1.98669e-09 0.00457306 0)
(2.17969e-09 0.00762212 0)
(2.0507e-09 0.0104337 0)
(1.80753e-09 0.0129139 0)
(1.55176e-09 0.0150085 0)
(1.34322e-09 0.0166897 0)
(1.20465e-09 0.0179476 0)
(1.13325e-09 0.0187824 0)
(1.12079e-09 0.0191982 0)
(1.161e-09 0.0191982 0)
(1.24679e-09 0.0187824 0)
(1.36428e-09 0.0179476 0)
(1.48795e-09 0.0166897 0)
(1.57967e-09 0.0150085 0)
(1.58915e-09 0.0129139 0)
(1.46544e-09 0.0104337 0)
(1.16884e-09 0.00762212 0)
(7.27236e-10 0.00457305 0)
(1.35588e-10 0.00145212 0)
(7.93737e-10 0.00145212 0)
(2.66453e-09 0.00457305 0)
(2.83321e-09 0.00762212 0)
(2.63057e-09 0.0104337 0)
(2.31993e-09 0.0129139 0)
(2.01309e-09 0.0150085 0)
(1.75904e-09 0.0166897 0)
(1.57858e-09 0.0179476 0)
(1.46905e-09 0.0187824 0)
(1.42048e-09 0.0191982 0)
(1.42393e-09 0.0191982 0)
(1.4695e-09 0.0187824 0)
(1.54201e-09 0.0179476 0)
(1.61942e-09 0.0166897 0)
(1.67503e-09 0.0150085 0)
(1.67901e-09 0.0129139 0)
(1.60621e-09 0.0104337 0)
(1.44144e-09 0.00762212 0)
(1.19034e-09 0.00457305 0)
(3.37112e-10 0.00145212 0)
(8.33774e-10 0.00145212 0)
(2.88561e-09 0.00457305 0)
(3.13038e-09 0.00762212 0)
(2.94508e-09 0.0104337 0)
(2.63038e-09 0.0129139 0)
(2.31501e-09 0.0150085 0)
(2.04762e-09 0.0166897 0)
(1.84941e-09 0.0179476 0)
(1.71961e-09 0.0187824 0)
(1.6488e-09 0.0191982 0)
(1.62707e-09 0.0191982 0)
(1.64305e-09 0.0187824 0)
(1.68199e-09 0.0179476 0)
(1.72742e-09 0.0166897 0)
(1.76447e-09 0.0150085 0)
(1.77798e-09 0.0129139 0)
(1.75316e-09 0.0104337 0)
(1.68948e-09 0.00762212 0)
(1.57045e-09 0.00457305 0)
(4.87143e-10 0.00145212 0)
(8.54942e-10 0.00145212 0)
(2.84654e-09 0.00457305 0)
(3.07661e-09 0.00762212 0)
(2.96511e-09 0.0104337 0)
(2.70815e-09 0.0129139 0)
(2.43116e-09 0.0150085 0)
(2.18761e-09 0.0166897 0)
(2.00007e-09 0.0179476 0)
(1.87154e-09 0.0187824 0)
(1.79563e-09 0.0191982 0)
(1.76303e-09 0.0191982 0)
(1.76233e-09 0.0187824 0)
(1.78089e-09 0.0179476 0)
(1.80831e-09 0.0166897 0)
(1.83752e-09 0.0150085 0)
(1.85721e-09 0.0129139 0)
(1.84754e-09 0.0104337 0)
(1.80911e-09 0.00762212 0)
(1.69851e-09 0.00457305 0)
(5.13265e-10 0.00145212 0)
(7.45977e-10 0.00145212 0)
(2.43164e-09 0.00457305 0)
(2.65889e-09 0.00762212 0)
(2.67243e-09 0.0104337 0)
(2.53211e-09 0.0129139 0)
(2.34403e-09 0.0150085 0)
(2.16429e-09 0.0166897 0)
(2.0177e-09 0.0179476 0)
(1.91329e-09 0.0187824 0)
(1.85005e-09 0.0191982 0)
(1.82099e-09 0.0191982 0)
(1.81642e-09 0.0187824 0)
(1.82736e-09 0.0179476 0)
(1.84866e-09 0.0166897 0)
(1.87557e-09 0.0150085 0)
(1.89206e-09 0.0129139 0)
(1.86701e-09 0.0104337 0)
(1.79149e-09 0.00762212 0)
(1.59689e-09 0.00457305 0)
(4.40616e-10 0.00145212 0)
(5.24024e-10 0.00145212 0)
(1.66939e-09 0.00457305 0)
(1.88062e-09 0.00762212 0)
(2.04028e-09 0.0104337 0)
(2.07763e-09 0.0129139 0)
(2.03512e-09 0.0150085 0)
(1.96184e-09 0.0166897 0)
(1.88789e-09 0.0179476 0)
(1.83122e-09 0.0187824 0)
(1.79848e-09 0.0191982 0)
(1.78706e-09 0.0191982 0)
(1.79104e-09 0.0187824 0)
(1.80623e-09 0.0179476 0)
(1.83135e-09 0.0166897 0)
(1.86053e-09 0.0150085 0)
(1.87191e-09 0.0129139 0)
(1.82874e-09 0.0104337 0)
(1.71194e-09 0.00762212 0)
(1.43748e-09 0.00457305 0)
(3.61381e-10 0.00145212 0)
(1.75366e-10 0.00145212 0)
(5.69832e-10 0.00457305 0)
(7.81943e-10 0.00762212 0)
(1.10482e-09 0.0104337 0)
(1.36116e-09 0.0129139 0)
(1.50875e-09 0.0150085 0)
(1.57761e-09 0.0166897 0)
(1.60452e-09 0.0179476 0)
(1.6177e-09 0.0187824 0)
(1.63229e-09 0.0191982 0)
(1.65181e-09 0.0191982 0)
(1.6757e-09 0.0187824 0)
(1.70496e-09 0.0179476 0)
(1.74115e-09 0.0166897 0)
(1.77794e-09 0.0150085 0)
(1.79425e-09 0.0129139 0)
(1.75984e-09 0.0104337 0)
(1.65465e-09 0.00762212 0)
(1.38869e-09 0.00457306 0)
(3.54148e-10 0.00145212 0)
(-2.31802e-10 0.00145212 0)
(-6.48556e-10 0.00457305 0)
(-4.13363e-10 0.00762212 0)
(3.39791e-11 0.0104337 0)
(4.86799e-10 0.0129139 0)
(8.26109e-10 0.0150085 0)
(1.04862e-09 0.0166897 0)
(1.19096e-09 0.0179476 0)
(1.28781e-09 0.0187824 0)
(1.36098e-09 0.0191982 0)
(1.42032e-09 0.0191982 0)
(1.47099e-09 0.0187824 0)
(1.51867e-09 0.0179476 0)
(1.56803e-09 0.0166897 0)
(1.61673e-09 0.0150085 0)
(1.65412e-09 0.0129139 0)
(1.66725e-09 0.0104337 0)
(1.6457e-09 0.00762212 0)
(1.49251e-09 0.00457306 0)
(4.29583e-10 0.00145212 0)
(-6.107e-10 0.00145212 0)
(-1.72549e-09 0.00457305 0)
(-1.44739e-09 0.00762212 0)
(-9.41221e-10 0.0104337 0)
(-3.72275e-10 0.0129139 0)
(1.07234e-10 0.0150085 0)
(4.60035e-10 0.0166897 0)
(7.08856e-10 0.0179476 0)
(8.86276e-10 0.0187824 0)
(1.01673e-09 0.0191982 0)
(1.11453e-09 0.0191982 0)
(1.18944e-09 0.0187824 0)
(1.2512e-09 0.0179476 0)