/*--------------------------------*- C++ -*----------------------------------*\
| =========                 |                                                 |
| \\      /  F ield         | OpenFOAM: The Open Source CFD Toolbox           |
|  \\    /   O peration     | Version:  5.x                                   |
|   \\  /    A nd           | Web:      www.OpenFOAM.org                      |
|    \\/     M anipulation  |                                                 |
\*---------------------------------------------------------------------------*/
FoamFile
{
    version     2.0;
    format      ascii;
    class       surfaceScalarField;
    location    "0.7";
    object      alphaPhi10;
}
// * * * * * * * * * * * * * * * * * * * * * * * * * * * * * * * * * * * * * //

dimensions      [0 3 -1 0 0 0 0];

internalField   nonuniform List<scalar> 
4432
(
-3.50931e-06
3.50931e-06
-7.12744e-06
3.61814e-06
-9.48366e-06
2.35622e-06
-1.10623e-05
1.5786e-06
-1.17883e-05
7.26036e-07
-1.09934e-05
-7.94885e-07
-8.49994e-06
-2.49347e-06
-5.34292e-06
-3.15701e-06
-2.88117e-06
-2.46175e-06
-1.61562e-06
-1.26556e-06
-1.44415e-06
-1.71461e-07
-2.16542e-06
7.2127e-07
-3.49273e-06
1.3273e-06
-5.23528e-06
1.74255e-06
-7.48867e-06
2.2534e-06
-1.02313e-05
2.74263e-06
-1.26165e-05
2.38517e-06
-1.27849e-05
1.15763e-06
-1.51589e-05
3.43548e-06
-2.35874e-05
5.90648e-06
-2.43144e-05
7.27021e-07
-1.48386e-05
-9.48048e-06
-1.48491e-05
-4.50738e-06
8.01669e-06
-7.66742e-06
6.77819e-06
-9.4515e-06
4.1403e-06
-1.09841e-05
3.11122e-06
-1.19999e-05
1.7418e-06
-1.14696e-05
-1.32513e-06
-8.99347e-06
-4.96964e-06
-5.643e-06
-6.50749e-06
-2.94718e-06
-5.15757e-06
-1.55287e-06
-2.65987e-06
-1.11711e-06
-6.07223e-07
-1.24198e-06
8.46142e-07
-1.71085e-06
1.79617e-06
-2.4793e-06
2.51101e-06
-3.57896e-06
3.35308e-06
-5.40705e-06
4.57071e-06
-8.47022e-06
5.44853e-06
-1.22123e-05
5.73994e-06
-1.62736e-05
8.28204e-06
-2.04301e-05
8.84361e-06
-1.83023e-05
-1.39676e-06
-1.07309e-05
-1.69038e-05
-2.558e-05
-3.64733e-06
1.1664e-05
-6.20119e-06
9.33205e-06
-8.10308e-06
6.04219e-06
-1.01379e-05
5.14605e-06
-1.16507e-05
3.25457e-06
-1.13997e-05
-1.57605e-06
-9.19962e-06
-7.16976e-06
-6.09527e-06
-9.61183e-06
-3.49945e-06
-7.7534e-06
-2.07695e-06
-4.08237e-06
-1.7173e-06
-9.66868e-07
-1.93529e-06
1.06413e-06
-2.32196e-06
2.18284e-06
-2.62605e-06
2.8151e-06
-2.62261e-06
3.34964e-06
-2.48541e-06
4.43351e-06
-3.05364e-06
6.01695e-06
-5.14603e-06
7.8597e-06
-7.09115e-06
1.06314e-05
-8.29884e-06
1.00919e-05
-7.95927e-06
-1.9321e-06
-4.35465e-06
-2.0198e-05
-2.99346e-05
-2.22523e-06
1.38892e-05
-4.03832e-06
1.11451e-05
-5.77911e-06
7.78298e-06
-7.53367e-06
6.90061e-06
-8.57533e-06
4.29623e-06
-8.20625e-06
-1.94513e-06
-6.79245e-06
-8.58357e-06
-5.12524e-06
-1.1279e-05
-3.70069e-06
-9.17795e-06
-2.80041e-06
-4.98265e-06
-2.54066e-06
-1.22662e-06
-2.81291e-06
1.33639e-06
-3.29007e-06
2.66e-06
-3.59331e-06
3.11834e-06
-3.46423e-06
3.22055e-06
-2.77637e-06
3.74566e-06
-1.55033e-06
4.79091e-06
-3.42003e-07
6.65138e-06
1.36708e-06
8.9224e-06
2.83557e-06
8.85832e-06
2.04744e-06
-1.33974e-06
1.75508e-06
-2.0329e-05
-2.81772e-05
-4.04608e-07
1.42939e-05
-7.80181e-07
1.15207e-05
-1.69948e-06
8.70228e-06
-2.25342e-06
7.45456e-06
-1.77731e-06
3.82012e-06
-7.92619e-07
-2.92982e-06
-7.48202e-07
-8.62799e-06
-1.80074e-06
-1.02265e-05
-2.84691e-06
-8.13178e-06
-3.371e-06
-4.45856e-06
-3.57393e-06
-1.02369e-06
-3.85615e-06
1.6186e-06
-4.24614e-06
3.04999e-06
-4.44377e-06
3.31597e-06
-4.20459e-06
2.98138e-06
-3.5173e-06
3.05836e-06
-2.15936e-06
3.43297e-06
5.00553e-08
4.44197e-06
3.81075e-06
5.16171e-06
7.70226e-06
4.96681e-06
7.86757e-06
-1.76951e-06
4.99882e-06
-1.74729e-05
-2.31784e-05
1.91645e-06
1.23774e-05
3.35041e-06
1.00868e-05
4.30204e-06
7.75065e-06
5.77756e-06
5.97904e-06
7.69344e-06
1.90424e-06
8.34199e-06
-3.57836e-06
6.44958e-06
-6.73559e-06
2.85481e-06
-6.63174e-06
-9.97098e-07
-4.27987e-06
-3.47759e-06
-1.97807e-06
-4.51929e-06
1.80187e-08
-5.00244e-06
2.10175e-06
-5.28929e-06
3.33684e-06
-5.27986e-06
3.30654e-06
-4.78662e-06
2.48814e-06
-3.92763e-06
2.19937e-06
-2.72226e-06
2.2276e-06
-8.52607e-07
2.57232e-06
2.3132e-06
1.9959e-06
6.50087e-06
7.79151e-07
8.16971e-06
-3.43836e-06
5.62856e-06
-1.49318e-05
-1.75498e-05
3.6004e-06
8.77702e-06
7.64884e-06
6.03832e-06
1.17953e-05
3.60416e-06
1.58242e-05
1.95017e-06
1.81207e-05
-3.92259e-07
1.66086e-05
-2.06654e-06
1.18051e-05
-1.93234e-06
6.00593e-06
-8.32614e-07
6.78376e-07
1.04767e-06
-3.15815e-06
1.85845e-06
-5.14382e-06
2.00369e-06
-6.08496e-06
3.04288e-06
-6.41841e-06
3.6703e-06
-6.2056e-06
3.09372e-06
-5.34137e-06
1.62392e-06
-4.18108e-06
1.03908e-06
-2.8782e-06
9.24729e-07
-1.27172e-06
9.65833e-07
7.3702e-07
-1.28428e-08
3.7429e-06
-2.22673e-06
5.56767e-06
-5.26313e-06
4.65719e-06
-1.40213e-05
-1.28927e-05
6.558e-06
1.48905e-06
1.29052e-05
-9.59664e-07
1.69232e-05
-1.00033e-06
1.86139e-05
-3.10972e-07
1.79051e-05
2.69888e-07
1.43453e-05
1.44611e-06
9.58344e-06
2.97614e-06
4.43847e-06
4.3045e-06
1.99701e-07
5.2864e-06
-2.85567e-06
4.91382e-06
-4.91554e-06
4.06355e-06
-6.43189e-06
4.55924e-06
-7.24426e-06
4.48267e-06
-7.18983e-06
3.03929e-06
-6.08909e-06
5.23179e-07
-4.62662e-06
-4.2339e-07
-3.0989e-06
-6.02986e-07
-1.46012e-06
-6.72936e-07
2.33937e-07
-1.7069e-06
2.02803e-06
-4.02082e-06
3.30863e-06
-6.54373e-06
3.25884e-06
-1.39715e-05
-9.63382e-06
-2.86287e-05
2.7315e-05
-5.22659e-05
2.36371e-05
-4.91541e-05
-3.13031e-06
-3.65898e-05
-1.25864e-05
-2.30522e-05
-1.35377e-05
-8.9932e-06
-1.3383e-05
1.17647e-05
-2.32474e-05
1.6179e-05
-3.34151e-06
-1.40754e-05
3.24636e-05
-7.29189e-05
5.88435e-05
-0.000117641
4.47225e-05
-0.000133123
1.54817e-05
-0.000129851
-3.28376e-06
-0.00011874
-1.10407e-05
-0.000103461
-1.46216e-05
-8.50079e-05
-1.89693e-05
-5.42902e-05
-3.16734e-05
-9.68701e-06
-4.50352e-05
-1.00935e-05
-3.45507e-05
6.27432e-05
-4.40258e-05
3.31122e-05
-3.42599e-05
-1.28959e-05
-2.30237e-05
-2.38226e-05
-1.25811e-05
-2.39802e-05
-1.15749e-07
-2.58483e-05
1.33682e-05
-3.78181e-05
-1.84658e-05
2.81193e-05
-8.58287e-05
9.9905e-05
-0.000137174
0.000110189
-0.000139794
4.73628e-05
-0.00012653
5.29083e-06
-0.000121739
-4.86907e-06
-0.000118575
-1.11286e-05
-0.000112205
-1.81594e-05
-9.88363e-05
-3.03998e-05
-7.34781e-05
-5.63608e-05
-2.83637e-05
-9.01465e-05
-3.84572e-05
-2.46494e-05
8.77299e-05
-2.63591e-05
3.48243e-05
-1.7636e-05
-2.16184e-05
-7.15018e-06
-3.42999e-05
-2.04682e-06
-2.90835e-05
3.17768e-07
-2.82117e-05
-1.17292e-05
-2.67026e-05
-6.66938e-05
8.18015e-05
-0.000115827
0.000149146
-6.95186e-05
6.22312e-05
-2.57023e-05
5.99126e-06
-1.84539e-05
4.42472e-07
-2.08767e-05
-1.17943e-07
-2.75934e-05
-5.45457e-07
-3.75244e-05
-2.08476e-06
-5.25665e-05
-6.64081e-06
-7.61782e-05
-2.56544e-05
-3.9851e-05
-0.000121662
-7.83082e-05
-1.13374e-05
9.90673e-05
-3.21177e-06
2.67005e-05
1.59306e-06
-2.54005e-05
8.56645e-06
-4.1217e-05
7.96712e-06
-2.84841e-05
-3.39565e-06
-1.68251e-05
-3.54853e-05
3.92693e-06
-8.74658e-05
0.000133905
-4.72126e-05
0.000108497
-5.21334e-06
1.803e-05
-4.78148e-07
1.27985e-06
-6.30483e-08
1.20904e-08
-1.9109e-07
-7.98591e-09
-7.35385e-07
-1.26928e-08
-2.65465e-06
-9.51189e-08
-7.92816e-06
-1.06652e-06
-2.28728e-05
-6.03599e-06
-4.18645e-05
-8.61398e-05
-0.000120173
-3.7758e-07
9.94449e-05
9.07412e-06
9.43121e-06
2.08536e-05
-3.23086e-05
2.5344e-05
-4.5703e-05
1.84364e-05
-2.1575e-05
-6.48895e-06
8.11968e-06
-4.86794e-05
4.61547e-05
-9.01973e-05
0.000177126
-1.51016e-05
3.73804e-05
-1.13923e-06
4.08319e-06
-2.17748e-08
1.47761e-07
-2.14525e-08
-4.8465e-09
-1.30499e-08
-3.09602e-08
-1.59417e-08
-2.76709e-08
-1.29834e-07
-2.95249e-09
-1.18117e-06
-7.75703e-09
-4.95707e-06
-1.95841e-06
-3.48526e-05
-4.85169e-05
-0.000155025
1.0219e-05
1.39963e-05
1.33405e-05
1.73532e-06
3.7804e-05
-4.42718e-05
4.17944e-05
-4.96611e-05
3.04729e-05
-1.02354e-05
-1.62892e-06
4.02484e-05
-4.64857e-05
9.10426e-05
-4.38144e-05
0.000185213
-3.33839e-06
1.994e-05
-1.23776e-07
8.49199e-07
-2.44142e-08
2.48799e-08
-2.7902e-08
-1.68296e-08
1.10998e-08
-9.34663e-08
8.37243e-08
-1.26321e-07
5.83657e-08
3.00695e-09
7.09785e-09
1.21691e-08
-1.93542e-06
-2.45312e-08
-2.52944e-05
-2.17567e-05
-0.00018032
1.32416e-05
2.68292e-05
3.94412e-05
-4.69575e-06
5.04389e-05
-5.47983e-05
5.3611e-05
-5.28556e-05
4.08511e-05
2.51157e-06
5.92662e-06
7.51999e-05
-3.39471e-05
0.000130935
-1.40196e-05
0.000163567
-6.54582e-07
6.5824e-06
-1.74047e-08
1.96485e-07
-2.46912e-08
8.57456e-09
-3.02175e-08
-3.48166e-08
9.69914e-08
-2.6498e-07
3.2962e-07
-4.71485e-07
2.75711e-07
6.73319e-10
1.75567e-07
1.07897e-07
7.57662e-08
5.66474e-08
-1.38015e-05
-5.49219e-06
-0.000140572
2.56229e-05
2.13297e-05
4.45223e-05
-2.07345e-05
5.17703e-05
-6.14545e-05
5.18871e-05
-5.27916e-05
3.71563e-05
1.13383e-05
1.3498e-05
9.88771e-05
-1.8094e-05
0.000162613
-4.27307e-06
0.00015463
-1.03426e-07
2.40317e-06
-2.37354e-08
9.9684e-08
-3.69166e-08
6.22134e-09
1.76022e-08
-1.14252e-07
4.33243e-07
-7.67283e-07
8.20241e-07
-1.30742e-06
6.33596e-07
-7.8327e-08
5.46569e-07
3.83554e-09
3.25948e-07
2.16788e-07
-3.36293e-06
-2.86939e-07
-9.07373e-05
8.71106e-07
-1.5198e-07
-7.32696e-07
-2.26419e-07
-2.33614e-06
-2.05344e-07
-3.2828e-06
-8.93798e-08
-4.23394e-06
-2.0109e-08
-5.91618e-06
1.07865e-07
-8.35379e-06
7.06246e-07
-1.06722e-05
1.48314e-06
-1.15736e-05
2.30741e-06
-1.12396e-05
2.79074e-06
-1.12036e-05
4.02759e-06
-1.27313e-05
6.0869e-06
-1.4707e-05
6.45845e-06
-1.47669e-05
3.09913e-06
-1.19032e-05
-2.34048e-06
-8.74566e-06
-3.58095e-06
-6.12275e-06
-3.2259e-06
-3.62744e-06
-3.16824e-06
-5.63111e-07
-4.77123e-06
2.42142e-06
-7.00534e-06
5.54235e-06
-9.66462e-06
6.91147e-06
-1.53406e-05
-1.61394e-05
1.34171e-05
-1.17471e-06
-1.8102e-08
-3.02009e-06
1.80909e-08
-4.27195e-06
-1.72039e-10
-5.26542e-06
-1.28593e-09
-5.96707e-06
-7.56333e-09
-6.56511e-06
-3.54829e-09
-8.37401e-06
4.9108e-09
-1.22034e-05
-8.24206e-08
-1.7156e-05
-4.51426e-07
-2.09681e-05
-1.57152e-06
-2.09219e-05
-2.61855e-06
-1.77539e-05
-1.71842e-06
-1.36643e-05
-2.1638e-07
-9.31673e-06
-1.99931e-06
-5.41434e-06
-5.02548e-06
-3.06657e-06
-5.2418e-06
-1.49527e-06
-4.63062e-06
1.00231e-06
-5.61856e-06
3.78745e-06
-7.53228e-06
4.4481e-06
-7.66539e-06
4.98184e-06
-1.0197e-05
6.3697e-06
-1.67266e-05
-2.2495e-05
1.27267e-05
-1.80254e-08
-7.50249e-11
-2.11998e-11
6.33566e-11
-1.9926e-10
2.06079e-12
-1.48766e-09
-4.2042e-12
-9.03829e-09
-3.37534e-11
-3.00933e-08
4.32428e-11
-2.51821e-08
-3.02679e-14
-1.07602e-07
-4.43438e-13
-5.59027e-07
-4.16361e-12
-2.13077e-06
-3.27157e-11
-6.55391e-06
-2.66232e-10
-1.03539e-05
-1.54245e-09
-1.22641e-05
-7.55911e-09
-1.35079e-05
-3.40162e-08
-1.52802e-05
-1.3909e-07
-1.50103e-05
-5.21994e-07
-1.23072e-05
-1.40799e-06
-9.59611e-06
-2.3447e-06
-6.66289e-06
-3.48711e-06
-5.47792e-06
-4.15697e-06
-5.64838e-06
-7.34347e-06
-5.46278e-06
-1.7565e-05
-2.62452e-05
-1.39154e-06
-2.54009e-10
1.79751e-10
-7.50886e-13
-1.91871e-10
-2.74333e-12
1.56377e-12
-8.92358e-12
1.00325e-12
-4.32052e-11
5.67376e-14
-1.24153e-14
3.64306e-14
-4.54788e-14
-5.91783e-16
-4.82173e-13
-2.0306e-14
-4.65386e-12
-9.67211e-14
-3.82048e-11
-1.09195e-13
-3.06665e-10
-1.61894e-12
-1.87665e-09
-7.89909e-12
-9.73345e-09
5.5561e-13
-4.53365e-08
1.01696e-12
-1.91486e-07
-7.25949e-12
-7.23983e-07
-1.80461e-08
-2.02792e-06
-2.03423e-07
-3.47627e-06
-1.28109e-06
-5.64883e-06
-6.67308e-06
-1.96996e-05
-1.80068e-05
-7.29854e-05
-1.84919e-05
-8.62823e-05
-2.08476e-05
-1.27333e-05
-2.69549e-05
1.48368e-10
3.16394e-11
-4.91367e-13
-1.94609e-11
-2.32413e-13
7.39152e-12
-6.28394e-14
1.58011e-13
-3.36539e-14
3.81038e-15
-1.27617e-15
-3.85808e-16
-2.43325e-15
-1.9487e-16
-2.06779e-13
-9.38411e-15
-2.36496e-13
-2.95915e-13
-5.92438e-13
4.76082e-13
-2.39295e-12
3.7164e-13
-1.58185e-11
2.73522e-12
-1.11305e-10
6.06023e-11
-6.49857e-10
1.82585e-10
-5.94333e-09
1.13283e-09
-4.06971e-08
7.88337e-09
-2.57965e-07
4.80951e-09
-1.38458e-06
-1.40082e-07
-3.0033e-05
-1.22289e-06
-6.10031e-05
-9.00318e-06
-8.68939e-05
-1.26767e-05
-2.80874e-05
-1.63591e-05
-2.14355e-05
-1.74989e-05
2.95504e-11
2.08899e-12
-3.82074e-13
2.6343e-13
8.20746e-13
6.23398e-12
1.10995e-14
4.55798e-13
4.04304e-15
8.158e-15
1.64203e-15
1.25548e-15
2.19948e-16
6.79512e-16
-8.8235e-14
1.00032e-14
-3.16219e-12
5.23464e-13
1.51056e-12
3.25295e-12
-2.46692e-12
1.55786e-12
-1.10717e-10
3.44149e-11
-5.60945e-11
2.04436e-10
-2.46386e-10
1.11087e-10
-8.41775e-10
-8.623e-13
-4.26076e-09
1.9581e-10
-9.83709e-09
-1.80339e-10
-1.43132e-07
-2.49781e-09
-8.9464e-07
-3.41548e-08
-7.80421e-06
-1.81824e-07
-1.77098e-05
-1.07006e-06
-3.15851e-05
-4.67171e-06
-1.42936e-05
-4.05588e-05
2.02774e-12
6.12537e-14
7.14662e-13
4.06138e-14
1.13131e-12
8.98602e-15
3.56626e-15
2.57014e-13
1.54543e-15
1.34298e-14
1.75375e-15
2.20356e-15
4.63974e-16
1.42158e-15
5.44793e-15
4.95363e-15
-1.76038e-12
8.15671e-13
-9.73797e-14
2.20649e-12
4.92112e-12
4.60814e-12
-7.63628e-11
1.02975e-11
-1.29478e-10
-1.75404e-11
-8.18303e-11
-2.44098e-11
-4.12802e-11
1.44249e-12
-9.69856e-11
-4.00974e-12
-2.94683e-10
1.62747e-11
-1.25971e-09
-3.50531e-12
-4.50108e-09
-2.08959e-10
-1.77986e-07
-2.56771e-09
-1.24443e-06
-2.1631e-08
-5.97247e-06
-2.00542e-07
-3.82682e-06
-3.23895e-05
6.02869e-14
9.66842e-16
5.16075e-14
7.85701e-15
3.61991e-14
2.24283e-15
2.50707e-14
4.76537e-15
2.77411e-15
4.73694e-15
1.27694e-15
3.37519e-15
1.13407e-15
5.08034e-15
3.56234e-15
7.1683e-15
-1.40741e-12
4.0837e-13
-1.58079e-12
8.69213e-13
-1.1806e-12
1.85093e-12
-1.6924e-11
5.39327e-12
-1.80157e-11
-7.45965e-13
-2.92495e-12
-2.56378e-12
-3.72525e-12
2.43027e-12
-4.20588e-12
-1.41174e-12
-7.30299e-12
-7.806e-13
-1.97662e-11
8.62312e-12
-1.40835e-10
-4.69599e-12
4.72414e-10
5.6478e-11
-1.15239e-08
-2.48604e-10
-2.28749e-07
-1.32925e-09
-2.93029e-07
-4.01941e-06
1.40743e-15
-4.20049e-16
2.20751e-15
1.46098e-15
1.63154e-15
8.18314e-16
8.99314e-16
3.78651e-16
6.6675e-16
1.00158e-15
1.22031e-15
4.25901e-15
6.15491e-16
6.8599e-15
-6.90899e-15
7.60707e-15
-5.77282e-14
2.1343e-15
2.32819e-14
5.23826e-15
-1.07463e-12
1.69588e-13
-1.04912e-11
1.11064e-11
-2.55633e-11
1.64584e-11
-2.61788e-12
1.91083e-11
-7.17935e-13
2.95659e-13
1.21076e-12
5.69721e-13
-8.28427e-12
5.49264e-12
-7.45109e-12
2.06665e-11
-1.17521e-11
2.24203e-11
7.97464e-12
6.24262e-11
2.7014e-09
8.76884e-10
2.71533e-08
3.21593e-09
4.08603e-10
-2.67948e-07
8.3008e-17
7.57265e-16
1.11724e-16
1.89811e-16
8.28054e-17
1.05699e-16
5.66693e-17
4.62958e-17
2.831e-16
6.33908e-16
5.77478e-16
4.40035e-15
3.84392e-16
7.59074e-15
-2.46809e-16
6.40864e-15
-1.69125e-15
2.55904e-15
-8.21166e-16
2.25163e-15
1.14583e-13
2.56159e-14
-1.1833e-11
1.46733e-12
-1.47059e-11
2.26296e-11
-5.50425e-13
1.06987e-11
-6.52478e-13
1.3894e-13
-1.28759e-12
1.01095e-12
-1.1219e-11
9.43893e-12
-4.33282e-12
2.35612e-12
-1.60824e-11
4.57585e-12
-1.07383e-10
1.08586e-10
-2.70823e-09
4.36064e-09
1.21189e-09
9.46328e-09
4.55396e-09
-6.81572e-09
7.85681e-18
2.0927e-16
4.63728e-18
1.20804e-17
4.47223e-18
6.53123e-18
4.00204e-18
7.98394e-18
1.11895e-16
3.59004e-16
4.01911e-16
2.71323e-15
2.09803e-16
5.64779e-15
-8.38123e-17
5.10681e-15
-3.03349e-16
2.41661e-15
-2.73099e-16
3.60877e-15
6.33915e-15
7.08601e-15
-1.24056e-12
-4.20018e-14
-1.90251e-12
-8.44467e-15
-2.275e-13
4.15428e-14
-4.57702e-13
1.20901e-13
-2.78616e-12
1.34833e-12
-6.74121e-13
7.65796e-14
2.43764e-13
2.50185e-13
1.53626e-12
4.60771e-12
-3.31693e-10
1.12972e-10
-5.88498e-09
4.43058e-09
-1.966e-09
7.53908e-09
1.71428e-08
-4.00014e-09
4.67771e-19
8.77008e-18
1.73352e-19
6.44172e-19
2.31201e-19
3.79434e-19
6.20187e-19
1.88543e-18
2.79921e-17
1.16884e-16
1.05417e-16
9.04078e-16
3.07703e-17
2.15763e-15
-6.79124e-17
2.18163e-15
-2.3949e-16
1.6971e-15
-6.93756e-16
3.91967e-15
-1.3584e-15
3.72324e-15
-4.68668e-14
-5.23915e-16
-7.81813e-14
1.23305e-15
-4.81281e-14
-6.11548e-15
-2.76697e-13
1.02577e-13
-9.40532e-14
4.45726e-14
-8.91529e-14
2.43495e-14
-6.25454e-13
2.00704e-13
-4.35133e-13
3.32591e-12
-8.83619e-11
1.3607e-10
-7.84043e-09
3.77344e-09
-9.4965e-09
1.19392e-08
1.80923e-08
-1.47962e-08
2.85355e-20
6.98576e-19
6.30188e-21
3.65586e-20
8.44513e-21
2.38699e-20
9.81096e-20
4.52496e-19
3.97584e-18
2.50648e-17
1.03206e-17
1.83903e-16
-1.40877e-17
4.21714e-16
-5.1985e-17
4.43307e-16
-3.21652e-16
1.14482e-15
-4.64373e-16
3.4857e-15
-5.28114e-16
2.05961e-15
-1.37876e-15
1.01796e-15
-2.15298e-15
6.33067e-16
-1.26415e-14
7.50935e-16
-1.25555e-14
9.21523e-15
-1.15029e-14
1.92639e-15
-1.8688e-14
1.19492e-14
-1.51664e-14
1.35794e-13
-5.45647e-13
3.41883e-12
1.34203e-11
1.12333e-10
-7.78155e-09
2.12967e-09
-8.96192e-09
6.3198e-09
1.88758e-08
-1.38182e-08
2.25802e-21
5.97723e-20
2.29058e-22
2.12561e-21
2.88515e-22
1.57217e-21
1.10309e-20
9.70823e-20
3.05779e-19
4.85646e-18
-1.00311e-18
3.08567e-17
-5.99922e-18
5.99505e-17
-2.36029e-17
7.27874e-17
-2.44533e-16
5.87081e-16
-2.53356e-16
1.88061e-15
-1.79217e-16
8.12551e-16
-1.70376e-16
4.58894e-16
-2.28672e-16
3.07331e-16
-1.10606e-15
2.63633e-16
-9.67056e-16
4.07799e-16
-1.38104e-15
8.79223e-16
-4.88267e-15
7.97122e-15
-4.96542e-14
1.63961e-13
-1.0223e-12
4.21226e-12
-2.97497e-11
1.35947e-10
-3.33516e-09
2.74133e-09
-2.09805e-09
1.3391e-08
2.86465e-08
-8.85797e-09
1.91442e-22
5.0524e-21
9.08527e-24
1.24667e-22
9.18324e-24
1.29775e-22
7.74522e-22
1.92888e-20
-1.78063e-20
8.95592e-19
-4.52946e-19
4.92751e-18
-1.27739e-18
8.89273e-18
-8.73271e-18
1.45992e-17
-9.38735e-17
1.52212e-16
-8.36363e-17
4.33075e-16
-7.2618e-17
2.47363e-16
-7.23751e-17
2.11967e-16
-4.39232e-17
1.61116e-16
-5.46313e-17
4.77476e-17
-1.01789e-16
5.20735e-17
-6.80465e-16
5.44429e-16
-7.85364e-15
1.3523e-14
-2.52446e-13
4.02862e-13
-5.56038e-12
9.2174e-12
-1.31676e-10
2.55712e-10
-5.57444e-09
4.69295e-09
-5.4414e-09
3.71353e-08
5.30439e-08
-4.48752e-09
1.54729e-23
4.20534e-22
4.59066e-25
7.29552e-24
3.56634e-25
1.92953e-23
-9.77829e-23
3.42252e-21
-1.47485e-20
1.39346e-19
-8.42918e-20
7.15654e-19
-2.23203e-19
1.39841e-18
-1.83188e-18
3.05864e-18
-1.68193e-17
1.98471e-17
-1.92392e-17
5.30934e-17
-2.54049e-17
6.88064e-17
-2.96067e-17
8.93137e-17
-8.02781e-18
6.54546e-17
-8.22478e-18
9.31844e-18
-2.26678e-17
1.71155e-17
-7.78555e-17
4.79845e-16
-5.20352e-15
1.82712e-14
-1.851e-13
5.53475e-13
-4.54665e-12
1.2805e-11
-8.50994e-11
3.19909e-10
-6.38045e-09
5.20311e-09
-5.31943e-09
2.74446e-08
3.53117e-08
1.49212e-09
1.19166e-24
3.43646e-23
1.91899e-26
4.09452e-25
1.18275e-26
4.34713e-24
-6.8674e-23
4.86651e-22
-2.5035e-21
1.70602e-20
-1.19126e-20
8.94135e-20
-3.59424e-20
2.15564e-19
-2.45401e-19
6.46901e-19
-1.59452e-18
2.6768e-18
-3.73883e-18
7.55986e-18
-6.9564e-18
1.5523e-17
-7.70521e-18
2.1664e-17
-1.07118e-18
1.30277e-17
-1.38818e-18
1.49406e-18
-9.49451e-18
8.04861e-18
8.63839e-17
3.00323e-16
8.41414e-15
9.16982e-15
2.19254e-13
3.16011e-13
4.01088e-12
8.24083e-12
1.34984e-10
1.71788e-10
-5.32727e-09
2.86064e-09
-1.05135e-08
1.16066e-08
1.47156e-08
-6.54253e-09
9.33092e-26
2.61418e-24
7.83409e-28
3.5346e-25
-5.84899e-27
7.57503e-25
-8.92499e-24
5.28745e-23
-2.45091e-22
1.68585e-21
-1.3e-21
9.73709e-21
-5.67046e-21
3.35978e-20
-3.78965e-20
1.538e-19
-1.99386e-19
5.73213e-19
-5.95865e-19
1.4157e-18
-1.04444e-18
2.4683e-18
-1.01004e-18
2.73751e-18
-1.2789e-19
1.27144e-18
-1.82122e-19
2.19271e-19
-7.55318e-18
2.61286e-18
-4.76678e-17
1.15949e-16
7.19827e-15
1.63684e-15
2.54933e-13
5.9875e-14
6.53407e-12
1.66621e-12
1.43687e-10
2.73096e-11
-1.77468e-09
3.80394e-10
-3.50004e-09
3.54257e-10
1.21292e-09
2.64556e-10
1.09772e-26
2.40541e-25
-9.49154e-29
-2.33024e-26
-2.54497e-29
5.85283e-26
-5.53254e-25
4.68082e-24
-1.48496e-23
1.44859e-22
-1.10438e-22
9.85506e-22
-8.75775e-22
5.68685e-21
-7.02475e-21
3.9014e-20
-3.01533e-20
1.44356e-19
-7.59693e-20
2.75859e-19
-9.77982e-20
3.47745e-19
-7.97312e-20
2.95184e-19
-1.39021e-20
1.26278e-19
-2.05092e-20
3.5868e-20
-5.52933e-19
3.99181e-19
-3.04771e-17
1.82591e-17
2.32591e-16
5.98297e-16
5.10653e-14
6.61547e-15
1.52743e-12
1.29379e-13
-1.4472e-11
7.94088e-12
-1.06402e-10
1.26134e-11
-1.52542e-10
1.28223e-10
6.17905e-10
5.10281e-13
8.3652e-28
1.6557e-25
-3.10559e-28
-6.42219e-26
1.8873e-28
2.8796e-26
-3.1273e-27
3.68205e-25
-4.20687e-25
1.16393e-23
-6.41355e-24
9.86092e-23
-1.06866e-22
1.00794e-21
-1.06504e-21
9.02782e-21
-3.85363e-21
3.33505e-20
-7.11237e-21
5.54872e-20
-8.68363e-21
6.15963e-20
-5.92428e-21
4.81579e-20
-1.35292e-21
2.12724e-20
-1.86477e-21
6.88062e-21
-3.32364e-20
3.91036e-20
-1.86581e-18
1.64758e-18
-3.2845e-17
7.18676e-17
1.2989e-15
1.96502e-15
3.97126e-14
2.03914e-14
8.68387e-14
2.79721e-13
1.80858e-12
3.59425e-12
5.82286e-11
2.80069e-11
1.41822e-10
4.53673e-10
-7.18446e-28
-1.32498e-25
-2.87167e-28
-4.64128e-26
-8.1675e-30
-1.8023e-27
1.50579e-27
2.64586e-26
3.69715e-26
9.08024e-25
1.6102e-25
9.88803e-24
-1.21283e-24
1.62511e-22
-4.44023e-23
1.6885e-21
-2.08568e-22
6.65746e-21
-3.98292e-22
1.17941e-20
-4.9573e-22
1.36485e-20
-3.25496e-22
1.12616e-20
-7.13655e-23
5.25321e-21
-7.44105e-23
1.57171e-21
-4.44239e-22
2.98354e-21
-5.80902e-21
1.21812e-19
6.2034e-19
4.81366e-18
7.18418e-17
1.93547e-16
9.40212e-15
2.50465e-15
2.22005e-13
3.70838e-14
2.5192e-12
5.32671e-13
2.13103e-11
3.64209e-12
1.56319e-11
1.35661e-10
-7.61427e-28
-1.27047e-25
-2.02931e-28
-2.54013e-26
-9.38445e-29
-1.20122e-26
3.38245e-28
1.6883e-27
9.31964e-27
6.91968e-26
1.12374e-25
9.53486e-25
1.94513e-24
2.10327e-23
1.92552e-23
2.44689e-22
7.07937e-23
1.1125e-21
1.20564e-22
2.30218e-21
1.51032e-22
2.906e-21
1.37292e-22
2.63982e-21
5.4763e-23
1.33565e-21
3.56796e-23
3.85552e-22
1.09468e-22
2.7116e-22
8.59902e-21
9.85557e-21
4.50303e-19
3.85657e-19
2.07378e-17
1.30628e-17
8.91906e-16
2.918e-16
3.20203e-14
3.54481e-15
4.27431e-13
5.41932e-14
3.10655e-12
3.55736e-13
1.35126e-12
1.59858e-11
-5.52833e-28
-8.20299e-26
-1.17721e-28
-1.17235e-26
-1.26521e-28
-1.10941e-26
1.33846e-28
1.20917e-27
1.23262e-27
5.12362e-27
1.99977e-26
8.37219e-26
4.88053e-25
2.1247e-24
6.12941e-24
2.78353e-23
2.84723e-23
1.46502e-22
5.78586e-23
3.44655e-22
7.55302e-23
4.66075e-22
7.75792e-23
4.61421e-22
3.18929e-23
2.60494e-22
1.38945e-23
8.20524e-23
1.6547e-23
2.92787e-23
1.37031e-21
7.9411e-22
6.76171e-20
3.15547e-20
2.77458e-18
1.03469e-18
8.44186e-17
2.48738e-17
2.57428e-15
4.7156e-16
4.15378e-14
4.51064e-15
3.12253e-13
2.95763e-14
8.578e-14
1.47149e-12
-3.50143e-28
-4.5898e-26
-5.77608e-29
-4.72085e-27
-1.03649e-28
-6.86244e-27
-3.24582e-30
-1.6488e-28
1.33975e-28
3.58563e-28
2.51591e-27
6.65928e-27
7.28627e-26
1.80125e-25
1.06216e-24
2.60004e-24
5.66886e-24
1.48941e-23
1.26947e-23
3.71539e-23
1.69603e-23
5.21529e-23
1.96384e-23
5.45182e-23
8.98364e-24
3.44553e-23
2.92351e-24
1.2682e-23
2.61511e-24
3.39626e-24
1.52527e-22
6.00789e-23
7.43284e-21
2.4003e-21
2.96794e-19
7.95379e-20
8.45789e-18
1.87205e-18
2.20648e-16
4.34416e-17
3.43452e-15
4.84181e-16
2.38051e-14
2.09599e-15
4.95085e-15
9.92994e-14
-2.00748e-28
-2.33377e-26
-2.45889e-29
-1.69211e-27
-6.30537e-29
-3.34364e-27
-9.63715e-30
-3.86297e-28
2.12532e-29
2.29465e-29
2.60729e-28
4.98421e-28
8.25768e-27
1.39891e-26
1.3212e-25
2.12174e-25
7.59671e-25
1.24797e-24
1.78832e-24
3.15922e-24
2.45528e-24
4.51782e-24
2.98618e-24
4.85048e-24
1.56617e-24
3.32643e-24
5.15948e-25
1.39602e-24
3.75409e-25
3.81607e-25
1.40758e-23
4.28258e-24
6.82123e-22
1.69495e-22
2.69102e-20
5.62946e-21
7.49932e-19
1.31591e-19
1.87892e-17
2.72522e-18
2.96963e-16
3.9924e-17
1.92453e-15
2.20956e-16
7.66027e-16
6.20325e-15
-1.05034e-28
-1.09199e-26
-9.2594e-30
-5.49949e-28
-3.07302e-29
-1.36406e-27
-7.71814e-30
-2.57718e-28
5.09366e-30
5.482e-30
2.40588e-29
3.60797e-29
7.96546e-28
1.03831e-27
1.33763e-26
1.60259e-26
7.94462e-26
9.49104e-26
1.91774e-25
2.42249e-25
2.71872e-25
3.51428e-25
3.29597e-25
3.83043e-25
1.94213e-25
2.74564e-25
6.94428e-26
1.23811e-25
4.69737e-26
3.74357e-26
1.14328e-24
2.90011e-25
5.49703e-23
1.12188e-23
2.14211e-21
3.70978e-22
5.8903e-20
8.71228e-21
1.41569e-18
1.76201e-19
2.25338e-17
2.44327e-18
1.66968e-16
1.86028e-17
1.71263e-16
8.64214e-16
-5.03803e-29
-4.72286e-27
-3.16329e-30
-1.65552e-28
-1.2555e-29
-4.81366e-28
-4.19042e-30
-1.20883e-28
5.74764e-31
7.16819e-31
2.03469e-30
2.50271e-30
6.92288e-29
7.43852e-29
1.19061e-27
1.15866e-27
7.18725e-27
6.91298e-27
1.76592e-26
1.78445e-26
2.55366e-26
2.62274e-26
3.08806e-26
2.8898e-26
1.95938e-26
2.12615e-26
7.46625e-27
9.95345e-27
4.9606e-27
3.17173e-27
8.42071e-26
1.87173e-26
3.99715e-24
7.02114e-25
1.54045e-22
2.31729e-23
4.25797e-21
5.69292e-22
1.0184e-19
1.25244e-20
1.58907e-18
1.73866e-19
1.41697e-17
1.44138e-18
2.43017e-17
1.62381e-16
-2.22641e-29
-1.89294e-27
-1.00694e-30
-4.73579e-29
-4.41364e-30
-1.50036e-28
-1.78764e-30
-4.58878e-29
-2.44811e-32
-4.88022e-31
1.85853e-31
1.51994e-31
5.573e-30
5.15663e-30
9.70795e-29
8.0967e-29
5.93029e-28
4.86923e-28
1.47618e-27
1.26993e-27
2.16256e-27
1.88499e-27
2.6075e-27
2.09279e-27
1.73916e-27
1.5693e-27
6.90744e-28
7.55068e-28
4.51829e-28
2.43342e-28
5.71674e-27
1.15431e-27
2.67403e-25
4.19694e-26
1.02795e-23
1.40195e-24
3.02981e-22
3.95839e-23
8.26985e-21
1.20106e-21
1.34421e-19
1.97118e-20
1.26894e-18
1.52035e-19
1.93111e-18
1.93464e-17
-9.13877e-30
-7.04559e-28
-3.07608e-31
-1.32561e-29
-1.35916e-30
-4.19229e-29
-6.37276e-31
-1.49027e-29
-1.94809e-32
-3.54445e-31
2.91454e-32
1.82815e-32
4.22936e-31
3.47219e-31
7.39973e-30
5.47052e-30
4.55305e-29
3.30887e-29
1.14394e-28
8.69133e-29
1.68854e-28
1.29806e-28
2.02821e-28
1.44684e-28
1.40129e-28
1.09999e-28
5.73171e-29
5.41118e-29
3.68211e-29
1.74795e-29
3.61788e-28
6.8403e-29
1.67411e-26
2.4245e-27
6.53815e-25
8.40423e-26
2.26442e-23
3.00293e-24
8.87842e-22
1.4813e-22
1.75824e-20
3.4014e-21
1.5008e-19
2.57609e-20
1.50694e-19
1.46104e-18
-3.52342e-30
-2.43955e-28
-9.29463e-32
-3.73559e-30
-3.7113e-31
-1.06226e-29
-1.96069e-31
-4.2653e-30
-8.95379e-33
-1.51869e-31
5.57518e-33
3.7525e-33
3.05496e-32
2.2711e-32
5.32366e-31
3.5762e-31
3.28829e-30
2.16947e-30
8.30257e-30
5.7211e-30
1.22934e-29
8.56899e-30
1.46951e-29
9.55348e-30
1.03992e-29
7.3254e-30
4.34699e-30
3.66131e-30
2.74757e-30
1.18525e-30
2.15915e-29
3.92607e-30
9.96376e-28
1.36882e-28
4.05231e-26
5.06531e-27
1.74452e-24
2.28995e-25
1.0358e-22
1.62527e-23
2.92265e-21
5.69202e-22
2.73731e-20
5.94269e-21
2.81684e-20
1.56979e-19
-1.28461e-30
-7.86822e-29
-2.8362e-32
-1.07858e-30
-9.07895e-32
-2.46422e-30
-5.31235e-32
-1.09611e-30
-3.17918e-33
-5.12244e-32
4.02414e-34
1.70913e-34
2.09326e-33
1.42681e-33
3.63554e-32
2.26754e-32
2.2481e-31
1.37601e-31
5.68722e-31
3.63274e-31
8.41488e-31
5.44068e-31
1.00026e-30
6.04644e-31
7.18142e-31
4.6533e-31
3.04694e-31
2.34798e-31
1.89968e-31
7.60363e-32
1.23067e-30
2.19815e-31
5.71771e-29
7.61625e-30
2.48311e-27
3.07994e-28
1.30863e-25
1.66545e-26
1.03503e-23
1.40884e-24
4.35973e-22
7.28857e-23
5.85431e-21
1.23613e-21
7.73144e-21
3.36704e-20
-4.39375e-31
-2.36587e-29
-8.74377e-33
-3.17501e-31
-2.01032e-32
-5.27805e-31
-1.28411e-32
-2.56265e-31
-9.40253e-34
-1.46854e-32
-1.3321e-35
-1.68929e-34
1.48588e-34
8.45493e-35
2.36491e-33
1.39935e-33
1.46014e-32
8.46865e-33
3.69132e-32
2.2323e-32
5.44265e-32
3.33361e-32
6.43182e-32
3.68139e-32
4.64824e-32
2.8314e-32
1.98975e-32
1.43404e-32
1.22666e-32
4.63179e-33
6.76739e-32
1.20353e-32
3.19613e-30
4.18514e-31
1.51292e-28
1.86789e-29
9.44397e-27
1.15968e-27
8.84991e-25
1.07384e-25
5.24404e-23
7.35189e-24
1.05897e-21
1.8308e-22
1.6497e-21
7.94448e-21
-1.38856e-31
-6.63618e-30
-2.6626e-33
-9.2944e-32
-4.06534e-33
-1.05216e-31
-2.79193e-33
-5.50632e-32
-2.39222e-34
-3.70377e-33
-6.3106e-36
-7.95443e-35
1.37007e-35
4.70353e-36
1.4673e-34
8.44034e-35
9.01003e-34
5.07261e-34
2.27145e-33
1.33143e-33
3.3293e-33
1.97693e-33
3.91194e-33
2.16297e-33
2.82742e-33
1.65584e-33
1.21503e-33
8.37273e-34
7.42465e-34
2.689e-34
3.59707e-33
6.43036e-34
1.73996e-31
2.25524e-32
9.01566e-30
1.09309e-30
6.41205e-28
7.42592e-29
6.70536e-26
7.30086e-27
5.18407e-24
6.16004e-25
1.42568e-22
1.93133e-23
2.13613e-22
1.38288e-21
-4.02283e-32
-1.73732e-30
-7.75069e-34
-2.63239e-32
-7.54189e-34
-1.96744e-32
-5.48189e-34
-1.09654e-32
-5.3135e-35
-8.38491e-34
-1.85916e-36
-2.39508e-35
1.55479e-36
6.54995e-37
8.69131e-36
4.99412e-36
5.26549e-35
2.96635e-35
1.32071e-34
7.73126e-35
1.91929e-34
1.13808e-34
2.24326e-34
1.23002e-34
1.61195e-34
9.33462e-35
6.92194e-35
4.68681e-35
4.20266e-35
1.49176e-35
1.83727e-34
3.3498e-35
9.11825e-33
1.18326e-33
5.07249e-31
6.00579e-32
3.89894e-29
4.19852e-30
4.33163e-27
4.17472e-28
4.15803e-25
4.15965e-26
1.45071e-23
1.59929e-24
1.80095e-23
1.58439e-22
-1.06881e-32
-4.247e-31
-2.10557e-34
-7.08205e-33
-1.28704e-34
-3.47818e-33
-9.73889e-35
-2.0389e-33
-1.03854e-35
-1.7281e-34
-4.25322e-37
-5.80215e-36
1.38551e-37
9.11219e-38
4.86782e-37
2.89738e-37
2.89985e-36
1.69928e-36
7.21597e-36
4.38593e-36
1.03671e-35
6.38166e-36
1.20541e-35
6.79345e-36
8.55738e-36
5.08971e-36
3.65406e-36
2.52306e-36
2.20881e-36
7.92857e-37
8.95264e-36
1.7096e-36
4.54741e-34
6.08537e-35
2.63917e-32
3.13875e-33
2.08442e-30
2.16281e-31
2.33948e-28
2.07985e-29
2.64925e-26
2.31772e-27
1.17891e-24
1.14373e-25
1.2934e-24
1.31841e-23
-2.59886e-33
-9.70028e-32
-5.2674e-35
-1.79088e-33
-2.03007e-35
-5.859e-34
-1.5686e-35
-3.56389e-34
-1.79453e-36
-3.27923e-35
-8.02981e-38
-1.21002e-36
6.19015e-39
4.63372e-39
2.55913e-38
1.64229e-38
1.49759e-37
9.57135e-38
3.6846e-37
2.44025e-37
5.21431e-37
3.49946e-37
6.03051e-37
3.65934e-37
4.20167e-37
2.69534e-37
1.77378e-37
1.31175e-37
1.06871e-37
4.05288e-38
4.14102e-37
8.61148e-38
2.15195e-35
3.11827e-36
1.2777e-33
1.61947e-34
1.00685e-31
1.0887e-32
1.10971e-29
1.00933e-30
1.41959e-27
1.23762e-28
8.22494e-26
7.8976e-27
9.70611e-26
9.60913e-25
-5.74198e-34
-2.07219e-32
-1.20034e-35
-4.22885e-34
-2.97471e-36
-9.47322e-35
-2.29645e-36
-5.89345e-35
-2.75319e-37
-5.78641e-36
-1.28381e-38
-2.24366e-37
-6.67217e-41
-9.79569e-40
1.30145e-39
9.13525e-40
7.22258e-39
5.3216e-39
1.75024e-38
1.33698e-38
2.43012e-38
1.88478e-38
2.79534e-38
1.93155e-38
1.89808e-38
1.39325e-38
7.87442e-39
6.62263e-39
4.73005e-39
2.00369e-39
1.81045e-38
4.30187e-39
9.66704e-37
1.60754e-37
5.84014e-35
8.46083e-36
4.56144e-33
5.62577e-34
4.96171e-31
5.21241e-32
7.22956e-29
7.39698e-30
5.37188e-27
5.74244e-28
7.54966e-27
6.76071e-26
-1.14579e-34
-4.14735e-33
-2.46916e-36
-9.29316e-35
-4.05733e-37
-1.47925e-35