/*--------------------------------*- C++ -*----------------------------------*\
| =========                 |                                                 |
| \\      /  F ield         | OpenFOAM: The Open Source CFD Toolbox           |
|  \\    /   O peration     | Version:  5.x                                   |
|   \\  /    A nd           | Web:      www.OpenFOAM.org                      |
|    \\/     M anipulation  |                                                 |
\*---------------------------------------------------------------------------*/
FoamFile
{
    version     2.0;
    format      ascii;
    class       volScalarField;
    location    "0.7";
    object      alpha.water;
}
// * * * * * * * * * * * * * * * * * * * * * * * * * * * * * * * * * * * * * //

dimensions      [0 0 0 0 0 0 0];

internalField   nonuniform List<scalar> 
2268
(
1
1
1
1
1
1
1
1
1
1
1
1
1
1
1
1
1
0.971896
0.870579
0.969778
1
0.999918
0.998993
1
1
1
1
1
1
1
1
1
1
1
1
1
1
1
1
0.999998
0.983077
0.916481
0.939162
0.999975
0.997369
1
1
1
1
1
1
1
1
1
1
1
1
1
1
1
1
1
0.999998
0.999717
0.989239
0.943955
0.940618
0.966071
1
1
1
1
1
1
1
1
1
1
1
1
1
1
1
1
1
1
1
0.999997
0.996073
0.940618
0.960485
0.999585
1
1
1
1
1
1
1
1
1
1
1
1
1
1
1
1
1
1
1
0.999999
0.969307
1
1
1
1
1
1
1
1
1
1
1
1
1
1
1
1
1
1
1
1
1
1
1
1
1
1
1
1
1
1
0.999997
0.999997
1
1
1
1
1
1
1
1
1
1
1
1
1
1
1
1
0.968985
0.928963
0.893824
0.863661
0.852136
0.859923
0.907434
0.987022
1
1
1
1
1
1
1
1
1
1
1
1
1
1
1
0.867256
1
0.999592
0.999634
1
0.98508
0.80039
0.709226
0.912874
1
1
1
0.999979
0.99967
0.98951
0.975571
0.962285
0.966561
0.952256
0.921374
0.999996
0.999998
1
1
1
0.980713
0.954089
0.993211
0.999994
0.999911
0.845182
0.811299
0.859025
0.905512
0.951718
0.988872
0.999975
1
0.998769
0.999987
0.999988
0.999945
1
0.999997
0.968837
0.968118
0.990454
0.808189
0.225371
0.0996108
0.091793
0.144031
0.210173
0.358689
0.631318
0.977126
1
1
0.999978
0.982552
0.999397
0.999999
0.999895
0.972246
0.970134
0.78832
0.109782
0.00113644
0.000179003
0.000193448
0.000238884
0.000540678
0.00305277
0.0161224
0.496832
1
1
0.69178
0.928532
0.999903
0.999986
0.999927
0.999849
0.948303
0.5331
0.00177163
0.000167794
0.000179212
0.000177673
0.000193772
0.000239198
0.000265256
0.00305397
0.152674
1
0.58553
0.498502
0.940571
0.999743
0.999929
0.999899
0.99989
0.885838
0.0849189
0.000347385
0.000193674
0.000176807
0.000193694
0.000239119
0.000265325
0.000290311
0.000283105
0.0733303
1
0.245878
0.733451
0.991699
0.999579
0.999899
0.999899
0.999899
0.789863
0.00115062
0.000221313
0.000216454
0.000193714
0.000308453
0.000611194
0.000342346
0.000290311
0.00042381
0.0348943
0.73282
0.859257
0.983282
0.989338
0.993685
0.940999
0.999899
0.996985
0.556515
0.000442926
0.000245942
0.000221336
0.000240399
0.000740552
0.00234445
0.00130589
0.00104625
0.000538831
0.0120227
0.300283
0.273429
0.266401
0.263275
0.277165
0.334788
0.448645
0.601424
0.759988
0.890662
0.972849
1
1
1
1
1
1
1
1
1
1
1
0.999999
1
0.00245374
0.0186623
0.036262
0.0558066
0.0723613
0.0847104
0.105238
0.167501
0.281995
0.440014
0.60946
0.753363
0.844429
0.899587
0.968149
0.993334
0.999237
0.999913
0.999965
0.99999
0.999989
0.999983
0.999987
-5.70245e-09
9.88738e-08
1.43756e-08
2.7508e-08
9.60804e-08
2.18272e-05
-2.17532e-09
-4.42105e-09
2.52877e-09
-4.63986e-09
0.0314851
0.100533
0.175278
0.235283
0.303707
0.426977
0.540889
0.585737
0.605761
0.69857
0.818524
0.897723
0.951465
-9.83945e-10
7.12303e-09
9.41017e-09
4.35114e-09
2.41332e-09
9.61615e-11
6.57853e-11
9.61226e-11
3.56743e-10
2.79866e-09
1.51233e-08
1.03057e-07
9.49313e-07
5.38936e-06
2.57677e-05
0.00011228
0.000448815
0.00179596
0.0322985
0.149545
0.444254
0.731787
0.626816
-2.82659e-10
4.37231e-08
7.50728e-08
3.14467e-09
4.91581e-10
6.93376e-11
5.51162e-11
1.22891e-09
1.45644e-08
1.41972e-08
1.47573e-08
2.01821e-08
1.03057e-07
1.02178e-06
1.16319e-05
3.14965e-05
0.000105777
0.000504863
0.0658283
0.326675
0.38248
0.242527
0.0608643
-5.33717e-15
5.20179e-08
9.54891e-08
9.90596e-09
8.3593e-11
5.51165e-11
5.48837e-11
1.47178e-10
7.91539e-08
1.59081e-07
2.01821e-08
1.18785e-06
9.37151e-06
1.12904e-05
1.19393e-05
2.65866e-05
3.76766e-05
1.0547e-05
0.000364026
0.0101327
0.0696187
0.143108
0.211742
-1.38591e-25
4.5699e-09
3.16955e-08
7.74737e-09
2.17284e-10
5.98559e-11
5.48837e-11
5.48837e-11
6.08127e-08
2.02662e-07
1.78926e-07
8.17577e-07
2.72402e-06
2.86784e-06
1.10886e-06
4.87833e-07
3.29699e-07
8.80848e-07
4.57863e-05
2.95523e-05
0.000122782
0.00102671
0.116411
0
2.32341e-10
1.07464e-10
9.91409e-10
1.71257e-10
7.83725e-11
1.12562e-10
8.4734e-11
3.57557e-08
1.343e-07
1.30325e-07
2.93016e-07
5.62088e-07
2.65543e-07
5.45566e-09
2.04612e-08
1.2583e-07
4.67844e-07
1.75925e-06
2.70615e-05
2.5441e-05
0.000122782
0.00102671
2.24889e-14
2.62942e-11
1.08621e-11
2.37168e-11
3.62413e-11
9.25614e-11
1.59674e-10
1.9335e-10
3.65569e-09
6.91539e-09
1.19248e-08
4.07037e-07
6.83237e-07
6.07647e-07
3.27458e-09
1.00725e-08
1.19921e-07
1.16567e-06
1.41209e-06
1.48806e-06
1.42435e-05
7.36376e-05
0.000173161
4.25658e-12
6.31049e-12
3.64099e-12
2.08105e-12
1.69906e-11
9.08501e-11
1.60572e-10
1.59151e-10
6.50937e-11
8.46393e-11
3.18453e-10
1.98077e-07
6.83237e-07
5.75242e-07
2.83885e-09
1.53563e-08
3.57977e-07
5.63685e-07
2.09566e-07
3.42816e-07
0.00010397
0.00025481
0.000258268
3.00424e-12
7.33497e-13
3.88422e-13
3.51504e-13
9.81598e-12
6.73961e-11
1.33678e-10
1.26379e-10
6.08263e-11
7.40459e-11
2.35416e-10
9.03235e-09
9.27907e-08
9.3408e-08
2.50947e-09
3.60873e-08
1.21025e-07
8.08081e-09
2.48129e-08
6.15126e-07
0.000160423
0.000282224
0.000128137
4.38928e-13
4.0861e-14
2.09512e-14
8.16194e-14
4.04486e-12
3.08706e-11
7.00647e-11
6.9552e-11
4.25717e-11
8.27187e-11
1.20246e-10
5.20035e-11
1.21024e-10
1.44335e-10
2.49012e-09
1.24148e-08
4.62421e-10
4.68573e-09
7.87662e-09
1.40399e-07
0.000143647
0.000280215
0.000106575
2.22519e-14
2.08559e-15
1.18283e-15
1.98966e-14
1.09108e-12
8.43753e-12
2.00201e-11
2.06438e-11
2.85892e-11
7.48764e-11
6.36129e-11
3.18158e-11
1.3662e-11
2.60163e-11
6.63996e-10
2.52873e-10
2.38236e-10
6.15004e-10
3.15225e-09
7.43128e-08
8.49356e-05
0.000259224
0.00010627
1.76435e-15
1.14628e-16
7.33302e-17
4.45022e-15
2.32259e-13
1.63301e-12
3.47944e-12
3.834e-12
1.65673e-11
4.95907e-11
2.71857e-11
1.45731e-11
7.95955e-12
9.46999e-12
4.2309e-11
1.61144e-11
6.1006e-11
1.66442e-10
2.71905e-09
7.05819e-08
3.73274e-05
9.40823e-05
9.77625e-05
1.47481e-16
6.50732e-18
5.59282e-18
9.24142e-16
4.5459e-14
2.74626e-13
5.15722e-13
7.17188e-13
6.03094e-12
1.76655e-11
8.99333e-12
6.2095e-12
4.44345e-12
2.20448e-12
1.86564e-12
4.82037e-12
1.64179e-11
1.5925e-10
5.24994e-09
1.11935e-07
4.341e-05
0.000128404
0.000108401
1.21635e-17
3.74335e-19
8.24252e-19
1.76709e-16
7.80853e-15
4.20719e-14
7.87579e-14
1.44287e-13
1.1255e-12
3.03784e-12
2.62647e-12
2.70596e-12
2.00277e-12
4.30218e-13
2.97543e-13
8.7596e-13
1.1388e-11
2.5275e-10
6.65087e-09
1.38876e-07
4.43032e-05
0.000234241
0.000257313
9.85817e-19
2.0302e-20
2.0276e-19
2.83298e-17
1.07788e-15
5.60823e-15
1.19744e-14
2.90177e-14
1.43318e-13
4.03575e-13
6.6358e-13
8.44565e-13
5.51575e-13
6.99693e-14
1.07148e-13
1.54824e-12
5.72094e-12
1.54584e-10
4.32412e-09
9.41845e-08
3.29298e-05
0.000202711
0.000233739
7.53873e-20
3.60832e-22
4.33023e-20
3.49727e-18
1.16207e-16
6.37646e-16
1.79889e-15
6.37779e-15
2.50373e-14
6.74617e-14
1.23254e-13
1.47022e-13
7.46839e-14
9.4286e-15
5.00646e-14
1.35221e-12
2.52139e-12
4.67777e-11
1.37812e-09
3.26983e-08
1.4763e-05
6.21306e-05
7.49272e-05
3.52426e-21
-4.57151e-22
5.15057e-21
3.32023e-19
1.01718e-17
6.44917e-17
2.87936e-16
1.56387e-15
5.85591e-15
1.25259e-14
1.75902e-14
1.60359e-14
6.52887e-15
1.3694e-15
1.02979e-14
4.9517e-13
6.23682e-12
1.38358e-11
2.56079e-10
9.72508e-08
1.66769e-06
1.28936e-06
2.82236e-06
8.14024e-23
-1.25698e-21
1.38921e-22
2.59731e-20
7.85456e-19
6.28303e-18
5.0258e-17
3.79245e-16
1.38374e-15
2.40129e-15
2.70842e-15
2.04992e-15
8.26402e-16
2.4482e-16
1.38667e-15
6.10769e-14
2.22149e-12
2.0313e-11
2.35574e-10
1.7484e-08
2.30147e-08
1.87143e-07
4.7009e-07
-1.83789e-21
-9.07094e-22
-3.22834e-23
1.80218e-21
5.78179e-20
6.21978e-19
8.60042e-18
7.95457e-17
2.96358e-16
4.98638e-16
5.50141e-16
4.22712e-16
1.81565e-16
5.32828e-17
1.18253e-16
4.76943e-15
2.00841e-13
6.5064e-12
4.7979e-11
1.14033e-10
2.39778e-09
2.32466e-08
6.2688e-08
-1.77284e-21
-4.96245e-22
-2.15271e-22
1.02156e-22
4.19129e-21
6.10131e-20
1.24929e-18
1.33094e-17
5.51026e-17
1.03594e-16
1.22308e-16
1.02408e-16
4.74522e-17
1.30956e-17
9.72689e-18
3.29333e-16
1.26104e-14
4.74346e-13
6.48793e-12
1.58613e-11
2.54732e-10
2.51286e-09
7.10768e-09
-1.15238e-21
-2.29185e-22
-1.99251e-22
8.99765e-25
2.99023e-22
5.50575e-21
1.41155e-19
1.72665e-18
8.33647e-18
1.80347e-17
2.29539e-17
2.10566e-17
1.07842e-17
3.09325e-18
1.08025e-18
2.46709e-17
9.19429e-16
2.8997e-14
6.36766e-13
4.70272e-12
3.75494e-11
2.38483e-10
6.34394e-10
-6.49708e-22
-9.24442e-23
-1.23724e-22
-2.87429e-24
2.0725e-23
4.38486e-22
1.25409e-20
1.75621e-19
9.65009e-19
2.30531e-18
3.10322e-18
3.06865e-18
1.77381e-18
5.79894e-19
1.4047e-19
1.85233e-18
6.87032e-17
2.10317e-15
4.80399e-14
8.52621e-13
4.47208e-12
3.04149e-11
7.11849e-11
-3.33199e-22
-3.32247e-23
-6.0611e-23
-6.77925e-24
1.20606e-24
3.17543e-23
9.54031e-22
1.46469e-20
8.59571e-20
2.14737e-19
2.99262e-19
3.11102e-19
2.02045e-19
7.75137e-20
1.80336e-20
1.32615e-19
4.82861e-18
1.49371e-16
3.34713e-15
6.76722e-14
7.18161e-13
3.16387e-12
1.1857e-11
-1.57405e-22
-1.08382e-23
-2.48982e-23
-4.55947e-24
1.09974e-26
2.21226e-24
6.75721e-23
1.07431e-21
6.42384e-21
1.63181e-20
2.32816e-20
2.49296e-20
1.75852e-20
7.64103e-21
2.00409e-21
9.16397e-21
3.20078e-19
9.98961e-18
2.27943e-16
4.14888e-15
6.27678e-14
5.15763e-13
5.30953e-12
-6.88046e-23
-3.27767e-24
-8.85949e-24
-2.15864e-24
9.46601e-43
1.50143e-25
4.63418e-24
7.41227e-23
4.45923e-22
1.14916e-21
1.6739e-21
1.82666e-21
1.35138e-21
6.30392e-22
1.84854e-22
6.15472e-22
2.0364e-20
6.49598e-19
1.65049e-17
3.4922e-16
5.16432e-15
6.63621e-14
1.40209e-12
-2.79015e-23
-9.42658e-25
-2.78782e-24
-8.27951e-25
-8.78637e-27
9.38545e-27
3.10587e-25
4.98077e-24
3.0202e-23
7.9074e-23
1.17262e-22
1.29791e-22
9.88936e-23
4.81166e-23
1.47919e-23
4.00794e-23
1.27174e-21
4.33469e-20
1.47287e-18
4.88979e-17
8.17737e-16
8.46251e-15
1.75561e-13
-1.05197e-23
-2.65396e-25
-7.87268e-25
-2.71917e-25
-6.45964e-27
2.8727e-28
2.04044e-26
3.2757e-25
2.00319e-24
5.3161e-24
7.99116e-24
8.93871e-24
6.95858e-24
3.49695e-24
1.09047e-24
2.53919e-24
8.0028e-23
3.10302e-21
1.56231e-19
8.60124e-18
1.82675e-16
1.46182e-15
1.33915e-14
-3.69508e-24
-7.52137e-26
-2.01769e-25
-7.87596e-26
-2.80374e-27
1.47202e-44
1.32071e-27
2.10072e-26
1.29283e-25
3.46512e-25
5.25793e-25
5.9201e-25
4.68137e-25
2.4142e-25
7.60054e-26
1.58376e-25
5.15654e-24
2.35353e-22
1.57811e-20
1.24713e-18
3.76522e-17
3.49686e-16
1.90647e-15
-1.21122e-24
-2.18216e-26
-4.73613e-26
-2.04954e-26
-9.58509e-28
0
8.23213e-29
1.31221e-27
8.10481e-27
2.18625e-26
3.33655e-26
3.76611e-26
3.00849e-26
1.58061e-26
5.02151e-27
9.83171e-27
3.39098e-25
1.80781e-23
1.39005e-21
1.33199e-19
6.041e-18
8.41461e-17
5.1231e-16
-3.70963e-25
-6.44603e-27
-1.0263e-26
-4.85403e-27
-2.78595e-28
-3.2095e-30
4.78605e-30
8.00358e-29
4.94475e-28
1.3379e-27
2.04656e-27
2.30681e-27
1.85224e-27
9.84262e-28
3.14702e-28
6.05914e-28
2.23327e-26
1.35495e-24
1.11918e-22
1.17288e-20
7.54467e-19
1.60702e-17
1.31723e-16
-1.06231e-25
-1.89086e-27
-2.06831e-27
-1.05653e-27
-7.12312e-29
-1.53333e-30
2.34856e-31
4.79286e-30
2.94426e-29
7.96301e-29
1.21661e-28
1.36432e-28
1.09598e-28
5.85046e-29
1.87627e-29
3.64553e-29
1.42634e-27
9.45074e-26
8.20446e-24
9.16062e-22
7.70003e-20
2.23991e-18
2.39819e-17
-2.84546e-26
-5.35891e-28
-3.9048e-28
-2.13023e-28
-1.63392e-29
-4.68174e-31
2.47208e-33
2.8371e-31
1.71623e-30
4.62233e-30
7.02703e-30
7.81095e-30
6.24757e-30
3.32721e-30
1.06663e-30
2.11333e-30
8.60157e-29
5.88349e-27
5.17097e-25
5.97779e-23
6.30974e-21
2.34721e-19
2.83936e-18
-7.131e-27
-1.44064e-28
-6.95679e-29
-4.00614e-29
-3.40835e-30
-1.14887e-31
5.0155e-51
1.65871e-32
9.82329e-32
2.62452e-31
3.954e-31
4.34018e-31
3.43844e-31
1.8133e-31
5.7887e-32
1.18595e-31
4.93711e-30
3.31859e-28
2.82022e-26
3.2033e-24
4.06022e-22
1.98757e-20
2.49078e-19
-1.67238e-27
-3.63526e-29
-1.17833e-29
-7.07135e-30
-6.53567e-31
-2.42319e-32
0
9.42123e-34
5.53726e-33
1.46214e-32
2.17393e-32
2.34789e-32
1.83195e-32
9.49189e-33
3.0049e-33
6.53383e-33
2.79275e-31
1.8126e-29
1.45822e-27
1.58026e-25
2.27766e-23
1.50761e-21
2.04171e-20
-3.67155e-28
-8.55606e-30
-1.9111e-30
-1.17853e-30
-1.16297e-31
-4.53524e-33
-1.99604e-35
5.13896e-35
3.08322e-34
8.01703e-34
1.17178e-33
1.24122e-33
9.48389e-34
4.79163e-34
1.49797e-34
3.5583e-34
1.59107e-32
1.01192e-30
7.82942e-29
8.31852e-27
1.36825e-24
1.15916e-22
1.73047e-21
-7.55138e-29
-1.87272e-30
-2.98662e-31
-1.86506e-31
-1.93688e-32
-7.68167e-34
-6.86775e-36
2.7792e-36
1.70124e-35
4.33891e-35
6.21434e-35
6.43987e-35
4.79339e-35
2.34653e-35
7.216e-36
1.90651e-35
9.03513e-34
5.79029e-32
4.48844e-30
4.97493e-28
9.62587e-26
9.21256e-24
1.40372e-22
-1.45715e-29
-3.81141e-31
-4.51826e-32
-2.8175e-32
-3.04295e-33
-1.19409e-34
-1.33728e-36
1.46756e-37
9.31686e-37
2.32423e-36
3.25415e-36
3.29353e-36
2.37764e-36
1.12258e-36
3.38446e-37
9.97838e-37
4.98804e-35
3.28319e-33
2.66431e-31
3.23731e-29
7.03507e-27
6.66841e-25
9.47783e-24
-2.6443e-30
-7.20291e-32
-6.62981e-33
-4.08248e-33
-4.5415e-34
-1.72221e-35
-2.06155e-37
7.59141e-39
5.06585e-38
1.23616e-37
1.69084e-37
1.66976e-37
1.16459e-37
5.29011e-38
1.51125e-38
5.10292e-38
2.63831e-36
1.7781e-34
1.53493e-32
2.03758e-30
4.47597e-28
3.8329e-26
4.8162e-25
-4.52991e-31
-1.27041e-32
-9.43615e-34
-5.69738e-34
-6.47871e-35
-2.3239e-36
-2.72767e-38
4.004e-40
2.69219e-39
5.91241e-39
6.75234e-39
6.63314e-39
4.8084e-39
1.8457e-39
5.62352e-40
2.00418e-39
1.35272e-37
9.15574e-36
8.21012e-34
1.12938e-31
2.29768e-29
1.71569e-27
1.85996e-26
-7.35902e-32
-2.0554e-33
-1.2923e-34
-7.68364e-35
-8.86692e-36
-2.93837e-37
-3.1486e-39
1.10274e-41
1.137e-40
6.627e-40
1.73934e-39
1.58185e-39
7.88641e-40
5.45089e-40
5.45089e-40
5.45089e-40
3.46468e-39
2.32801e-37
2.11818e-35
2.91306e-33
5.40287e-31
3.55345e-29
3.31162e-28
1
1
1
1
0.999987
0.999981
0.999973
0.999961
0.927918
0.884915
0.848072
0.796564
0.0937687
0.0119773
0.00883498
0.000816305
0.0486174
0.0365992
0.0158034
0.00159677
0.218721
0.224298
0.157851
0.00677204
0.224293
0.2286
0.233976
0.235846
0.0853215
0.233976
0.235846
0.239722
0.00122719
0.0270285
0.204346
0.242796
0.000352814
0.000945182
0.00281214
0.0846714
0.000156159
0.000272667
0.000595376
0.00154692
0.00011349
0.000155198
0.000271834
0.000593153
0.000106575
0.000120572
0.00017507
0.000356214
0.000106575
0.00012519
0.000217674
0.000599548
0.000124575
0.000195088
0.000487179
0.00167913
0.000232714
0.000255612
0.000474137
0.000957328
0.000112754
0.000210507
0.00155661
0.00579477
4.86761e-05
0.000204854
0.00402621
0.00718779
3.08395e-05
0.000171277
0.00223109
0.00496972
6.01257e-06
5.44336e-05
0.000125502
0.000219374
1.7833e-07
8.01892e-07
3.32796e-06
5.05313e-06
1.74972e-08
7.50312e-08
2.83209e-07
4.15261e-07
1.49457e-09
5.62249e-09
1.95981e-08
2.76252e-08
1.09441e-10
3.96189e-10
1.19885e-09
1.65954e-09
2.49695e-11
5.21995e-11
1.10089e-10
1.89106e-10
1.45863e-11
2.36857e-11
4.01863e-11
8.2133e-11
4.79854e-12
1.09357e-11
2.7857e-11
6.83861e-11
6.44109e-13
1.88209e-12
6.83702e-12
2.13508e-11
3.78379e-14
9.64597e-14
4.83651e-13
2.42299e-12
4.04134e-15
6.60812e-15
3.24885e-14
3.07498e-13
1.15272e-15
1.94741e-15
6.39138e-15
5.83659e-14
3.36803e-16
6.36379e-16
1.42522e-15
6.61776e-15
6.87899e-17
1.50115e-16
3.01431e-16
4.86821e-16
8.35369e-18
1.96005e-17
5.35107e-17
6.48784e-17
6.62944e-19
1.44987e-18
6.5262e-18
8.87577e-18
4.81177e-20
9.25719e-20
5.94351e-19
9.34927e-19
3.87479e-21
8.07118e-21
6.38415e-20
9.34962e-20
3.17633e-22
1.0014e-21
9.25872e-21
1.019e-20
2.26928e-23
1.34248e-22
1.11849e-21
8.95427e-22
1.21919e-24
1.24291e-23
7.75287e-23
4.5067e-23
4.59491e-26
5.82637e-25
2.64141e-24
1.01966e-24
1.05493e-27
9.52573e-27
3.54089e-26
9.59032e-26
0.999961
0.998324
0.960227
0.624597
0.396621
0.688794
0.980592
0.619969
0.00490544
0.000284105
0.000245942
0.000303576
0.0025003
0.00785804
0.00591482
0.00183312
0.000759114
0.00204546
0.158099
0.997051
0.873254
0.297511
0.0303553
0.258436
0.674616
0.93783
0.881065
0.0116258
0.000296963
0.000283519
0.000688803
0.0268369
0.111041
0.167597
0.0908874
0.00547243
0.00273011
0.149217
0.501484
0.0599853
0.000771982
0.00115844
0.00110151
0.221646
0.834594
0.933063
0.135078
0.000296963
0.000770896
0.0363123
0.422262
0.641642
0.716472
0.592714
0.0807912
0.00346607
0.394064
0.000637695
0.000568296
0.000461013
0.000527121
0.000529839
0.0119179
0.502193
0.933063
0.775379
0.0206154
0.0176565
0.482077
0.764326
0.76066
0.762707
0.759858
0.218263
0.00743594
0.494323
0.000574512
0.000461359
0.000448145
0.00043454
0.000442697
0.000527956
0.0964161
0.857467
0.864517
0.471412
0.0797096
0.755819
0.764326
0.764326
0.76066
0.709967
0.127484
0.00760113
0.523217
0.00117198
0.000502342
0.00043493
0.000434939
0.000434939
0.000440369
0.00344095
0.468299
0.863756
0.60391
0.457043
0.758101
0.764326
0.68638
0.38465
0.166194
0.00760113
0.00723286
0.544306
0.0736775
0.00101521
0.000502049
0.000434938
0.000443016
0.000532498
0.00471481
0.46992
0.863756
0.493797
0.722124
0.753569
0.755492
0.222092
0.0106205
0.0078027
0.00718901
0.00735108
0.615698
0.240075
0.0348517
0.00101376
0.000505083
0.000531995
0.00180185
0.114984
0.713217
0.769816
0.305465
0.219502
0.452297
0.719291
0.255167
0.0285955
0.0230927
0.0288177
0.0788141
0.719808
0.244606
0.239611
0.0214549
0.00157278
0.00192893
0.0636818
0.468662
0.583373
0.223835
0.0939113
0.0239626
0.0432676
0.453096
0.66716
0.510415
0.45301
0.603376
0.673392
0.772378
0.223275
0.247336
0.247498
0.0603253
0.0138781
0.158399
0.263837
0.0778205
0.0242237
0.026632
0.0211275
0.00204397
0.104591
0.659319
0.875601
0.933422
0.958544
0.965035
0.905581
0.0306032
0.227215
0.247498
0.24751
0.0596788
0.0163395
0.00677512
0.0013577
0.00948977
0.0743349
0.0587844
0.000283003
0.000112547
0.0251157
0.30136
0.46073
0.679084
0.964677
1
0.0015533
0.0098282
0.173779
0.26429
0.202404
0.00358051
0.0013577
0.00130722
0.001357
0.157075
0.0555166
6.52868e-05
1.15986e-05
5.85356e-05
0.000268115
0.00121649
0.00947476
0.379292
1
0.00097915
0.00295008
0.0460814
0.275807
0.456404
0.19515
0.00180626
0.00126538
0.00127224
0.159661
0.0438612
1.14141e-05
7.82682e-07
4.81455e-06
3.95447e-05
0.000265896
0.00121446
0.0350411
0.658696
0.0021933
0.0959759
0.380015
0.456657
0.456746
0.456404
0.21998
0.0587002
0.161677
0.161571
0.00329103
7.80091e-07
2.9254e-08
1.61543e-07
3.57211e-06
3.94169e-05
0.00027582
0.012278
0.0439088
0.00673214
0.195751
0.445711
0.456716
0.456404
0.453822
0.451584
0.43569
0.121796
0.0110376
3.26435e-06
-4.75623e-08
4.49261e-09
1.16553e-09
1.52969e-07
2.70969e-06
0.00147117
0.00864401
0.0389458
0.00337665
0.0204334
0.0813048
0.184798
0.240903
0.251247
0.156026
0.0979281
0.0299216
5.39021e-05
8.47887e-07
-1.55091e-08
4.43794e-09
3.74921e-09
-9.95717e-09
5.806e-06
0.00721125
0.00850891
0.178268
0.00780687
2.81987e-06
2.0726e-06
9.51837e-07
5.6916e-07
9.56256e-07
4.53725e-06
3.32478e-05
0.000100552
1.11391e-05
-3.53982e-07
4.45929e-09
3.81475e-09
3.08121e-09
3.15223e-09
3.15223e-09
0.00426302
0.00177351
0.0255302
0.00755781
1.02795e-05
9.51837e-07
7.05653e-07
3.74215e-07
4.67497e-07
5.48529e-07
1.65268e-05
1.46476e-05
1.93238e-06
2.0494e-08
1.01443e-08
4.45929e-09
5.10512e-09
3.15223e-09
4.24072e-09
0.000481407
4.68049e-05
-2.04375e-22
0.00344969
0.000103654
1.66519e-05
4.08044e-06
3.30775e-07
3.80478e-07
3.55466e-07
4.01214e-06
1.71472e-06
2.72945e-07
3.44639e-08
2.3167e-08
1.15071e-07
1.0179e-07
6.88694e-09
6.18018e-06
1.44795e-05
1.25759e-05
1.44489e-19
8.95091e-05
6.91922e-05
1.53364e-05
1.1795e-07
1.86621e-07
4.3041e-07
2.37812e-08
1.90033e-08
1.40353e-07
2.66505e-07
4.45722e-07
2.63606e-07
2.70953e-07
1.5369e-07
9.28901e-09
0.000174761
3.91551e-05
8.26379e-05
0
5.94671e-06
4.61238e-06
1.6363e-06
7.40097e-09
7.19534e-10
1.08967e-09
2.37668e-08
7.0949e-09
1.28867e-08
2.99337e-08
2.57017e-07
2.70968e-07
2.70684e-07
6.47427e-08
1.00832e-08
0.000232074
0.000204566
8.87313e-05
-1.15592e-18
5.95032e-07
3.52632e-07
3.67987e-09
7.10053e-10
3.9018e-10
1.02487e-09
6.05362e-09
6.61244e-09
7.03862e-09
1.67287e-08
2.06642e-08
2.19403e-08
1.16113e-08
1.00812e-08
1.04593e-08
0.000235702
0.000233872
8.35222e-05
-8.95389e-06
2.67838e-08
8.33458e-09
1.74936e-09
4.41465e-10
3.67332e-10
3.66737e-10
3.22495e-08
1.65067e-07
2.38625e-07
2.47126e-07
2.77635e-07
2.65439e-07
7.24294e-08
1.09884e-08
1.00812e-08
0.00022992
0.0001554
8.92927e-05
0.0355934
8.14032e-10
6.36841e-10
7.14405e-10
4.80569e-10
3.66654e-10
3.67332e-10
3.63794e-08
4.6544e-07
5.30129e-07
5.32167e-07
5.32439e-07
5.32167e-07
4.07932e-07
2.64838e-08
1.09884e-08
0.000152675
0.000103054
0.000100649
0.39544
3.2583e-10
5.52907e-10
6.38161e-10
5.80222e-10
4.13923e-10
3.6663e-10
3.6814e-10
6.8618e-09
1.96813e-07
5.02e-07
5.32167e-07
5.32544e-07
5.31661e-07
8.60685e-08
1.79445e-08
6.99876e-06
0.00026497
0.000123098
0.620285
3.04248e-10
5.5863e-10
6.21254e-10
6.05946e-10
4.9436e-10
4.01483e-10
9.38389e-10
1.00027e-09
1.04107e-09
9.68699e-10
3.80795e-07
5.31661e-07
5.12953e-07
8.80006e-08
6.11571e-08
0.000281161
0.00547538
0.000495371
0.351533
2.26726e-10
4.59718e-10
5.64868e-10
5.48809e-10
3.47367e-10
8.82068e-10
5.03253e-09
5.63915e-09
2.7856e-09
8.74129e-10
8.06287e-10
4.38227e-07
4.62096e-07
9.50811e-08
1.00848e-07
0.00115378
0.00741822
0.00466077
0.00741052
1.0447e-10
2.80229e-10
4.22538e-10
3.88602e-10
3.12257e-10
2.17941e-09
5.34917e-09
5.53165e-09
3.16857e-09
8.13013e-10
8.19657e-10
8.00054e-08
2.82631e-07
1.00848e-07
1.03553e-07
0.00190513
0.00749634
0.00166353
1.62739e-20
3.32668e-11
1.38103e-10
2.4325e-10
2.30737e-10
3.09432e-10
4.86495e-10
4.88813e-10
7.76176e-10
9.16043e-10
8.91996e-10
8.04052e-10
8.36313e-10
1.13555e-07
1.49255e-07
1.03751e-07
0.00176357
0.00583361
5.90222e-06
-1.31409e-19
1.17313e-11
6.17353e-11
1.0668e-10
1.37783e-10
3.1257e-10
3.17353e-10
3.29709e-09
1.72671e-09
1.51344e-09
2.55534e-09
8.36313e-10
1.03199e-09
3.72849e-09
8.63452e-09
1.43397e-08
0.000754413
6.97344e-06
1.51355e-06
0.00069706
4.1569e-12
2.29638e-11
5.7284e-11
1.37028e-10
7.17916e-12
9.83264e-12
1.56799e-07
1.46022e-07
1.0773e-08
3.54389e-09
1.82441e-09
2.38593e-09
1.20148e-08
8.45433e-09
8.39447e-09
0.000161113
1.51355e-06
5.91874e-07
0.0167772
1.15571e-12
8.38081e-12
3.50429e-11
6.83308e-11
4.79056e-12
1.4689e-08
2.77823e-07
2.77648e-07
3.36554e-08
3.74209e-09
7.2861e-07
3.20004e-06
1.71855e-05
2.26513e-06
1.6343e-08
2.88267e-05
5.65424e-06
1.72527e-07
0.0234391
2.52402e-13
3.09474e-12
2.41259e-11
2.52588e-11
4.4856e-12
9.93062e-09
2.50982e-07
2.77833e-07
1.34163e-07
4.33895e-09
2.01471e-06
1.7058e-05
2.10391e-05
1.19213e-05
1.72939e-07
2.68685e-06
3.36196e-06
1.733e-07
0.000805236
4.12746e-14
8.76328e-13
9.25316e-12
1.01903e-11
4.4876e-12
3.83634e-13
3.44888e-08
2.39656e-07
2.38548e-07
8.36605e-08
1.75454e-06
4.08432e-06
7.80874e-06
3.67309e-06
2.0139e-08
2.66953e-09
7.80894e-09
8.11319e-09
-2.20009e-24
4.15004e-15
1.23557e-13
1.24906e-12
2.3524e-12
1.60768e-12
3.73653e-13
1.78164e-13
1.80263e-13
7.26953e-08
1.76351e-07
2.21011e-09
4.98946e-09
8.23741e-09
8.19018e-09
7.75431e-09
2.25276e-09
2.66953e-09
3.17648e-07
4.44243e-08
2.55725e-16
6.17654e-15
5.61249e-14
2.38218e-13
2.38969e-13
3.44483e-13
6.6634e-13
2.14349e-13
1.66043e-13
5.74274e-09
1.88129e-09
6.46916e-09
9.00403e-09
2.82673e-08
2.26365e-08
1.11886e-09
2.27659e-07
5.49219e-07
1.58287e-07
1.60514e-17
1.93192e-16
2.36852e-15
9.95961e-15
3.83049e-14
1.01354e-12
2.43424e-12
1.92406e-12
3.24738e-13
2.08876e-13
7.69273e-10
1.2706e-08
4.27608e-08
5.68131e-08
3.31571e-08
4.14241e-10
5.46217e-07
5.49649e-07
1.54539e-07
1.41174e-18
1.97168e-17
3.82676e-16
1.02959e-15
1.3882e-14
1.40182e-12
2.44634e-12
1.97411e-12
3.98254e-14
3.75196e-14
3.09544e-08
6.13247e-08
6.1331e-08
5.34939e-08
4.64129e-09
2.31857e-10
5.0001e-07
4.04092e-07
2.30209e-08
1.47942e-19
3.02684e-18
6.10109e-17
1.17163e-16
5.97063e-15
4.80333e-13
7.63065e-13
2.55923e-13
-4.17284e-14
8.59417e-27
5.10191e-08
6.13304e-08
4.24684e-08
1.40176e-12
4.49697e-14
1.66473e-10
9.02795e-08
2.90027e-13
0
1.41816e-20
3.24387e-19
3.96378e-18
8.26086e-18
1.52456e-15
3.16735e-14
1.99759e-14
2.68837e-15
-7.29443e-14
1.56651e-09
3.22582e-09
1.08929e-08
1.71884e-26
6.91581e-31
4.30082e-14
4.01458e-09
2.93871e-13
5.97009e-16
-2.62271e-31
9.1866e-22
1.64303e-20
8.58925e-20
3.6927e-19
1.14934e-16
1.75968e-16
4.5702e-17
1.02861e-18
-2.01105e-14
-4.707e-15
-5.54477e-16
-5.07712e-17
-4.41696e-18
-3.70125e-19
-2.83668e-20
3.7688e-09
1.41363e-10
-1.3405e-38
0
2.08909e-23
2.41969e-22
6.20955e-22
5.60407e-21
8.19442e-19
1.70181e-19
6.34861e-21
-1.14665e-19
-2.57621e-19
-1.14865e-19
-3.1471e-20
-6.43215e-21
-9.9884e-22
-1.23502e-22
-1.24909e-23
-1.06209e-24
-9.92005e-26
-8.86132e-27
-3.20477e-28
)
;

boundaryField
{
    leftWall
    {
        type            zeroGradient;
    }
    rightWall
    {
        type            zeroGradient;
    }
    lowerWall
    {
        type            zeroGradient;
    }
    atmosphere
    {
        type            inletOutlet;
        inletValue      uniform 0;
        value           nonuniform List<scalar> 
46
(
-7.35902e-32
-2.0554e-33
-1.2923e-34
-7.68364e-35
-8.86692e-36
-2.93837e-37
-3.1486e-39
1.10274e-41
1.137e-40
6.627e-40
1.73934e-39
1.58185e-39
7.88641e-40
5.45089e-40
5.45089e-40
5.45089e-40
3.46468e-39
2.32801e-37
2.11818e-35
2.91306e-33
5.40287e-31
3.55345e-29
3.31162e-28
1.05493e-27
9.52573e-27
3.54089e-26
9.59032e-26
2.08909e-23
2.41969e-22
6.20955e-22
0
0
0
0
0
0
0
0
0
0
0
0
0
0
0
0
)
;
    }
    defaultFaces
    {
        type            empty;
    }
}


// ************************************************************************* //
