/*--------------------------------*- C++ -*----------------------------------*\
| =========                 |                                                 |
| \\      /  F ield         | OpenFOAM: The Open Source CFD Toolbox           |
|  \\    /   O peration     | Version:  5.x                                   |
|   \\  /    A nd           | Web:      www.OpenFOAM.org                      |
|    \\/     M anipulation  |                                                 |
\*---------------------------------------------------------------------------*/
FoamFile
{
    version     2.0;
    format      ascii;
    class       volScalarField;
    location    "0.7";
    object      p;
}
// * * * * * * * * * * * * * * * * * * * * * * * * * * * * * * * * * * * * * //

dimensions      [1 -1 -2 0 0 0 0];

internalField   nonuniform List<scalar> 
2268
(
497.332
497.027
498.757
503.163
512.003
527.037
548.1
571.643
594.46
616.114
637.102
657.544
677.311
696.241
714.202
730.617
745.442
758.015
766.022
765.738
773.361
799.125
825.149
437.972
437.215
438.815
443.117
451.696
466.749
488.204
512.309
535.485
557.288
578.327
598.788
618.567
637.503
655.499
672.115
687.166
701.868
712.323
707.994
706.132
729.733
761.123
377.284
376.27
378.055
382.209
390.134
404.978
427.097
452.45
476.441
498.545
519.698
540.187
559.934
578.772
596.608
613.266
628.653
643.47
655.287
652.14
647.233
664.999
697.891
315.835
314.653
316.546
320.35
327.283
341.734
365.025
392.387
417.562
440.027
461.278
481.797
501.54
520.317
538.059
554.694
570.164
584.552
596.543
598.133
596.675
609.978
638.779
254.317
252.832
254.56
257.947
264.159
278.28
303.36
332.748
359.046
381.819
403.154
423.676
443.405
462.126
479.821
496.471
511.976
526.079
539.193
545.172
549.651
559.901
582.994
192.869
191.109
192.257
195.247
201.452
216.423
242.851
273.52
300.624
323.787
345.331
365.838
385.523
404.146
421.793
438.47
454.093
468.628
482.194
492.15
500.878
509.882
527.794
131.453
130.349
130.547
133.184
140.417
156.562
183.058
213.747
241.476
265.393
287.434
308.301
327.968
346.423
363.971
380.641
396.343
411.118
425.154
437.634
449.259
458.979
473.941
69.8474
70.6094
70.4605
73.5776
81.7688
98.9879
124.505
153.751
181.578
206.889
229.79
250.957
270.581
288.712
306.19
322.953
338.778
353.695
368.572
382.545
396.487
407.465
422.715
812.903
686.9
709.732
800.639
899.64
963.287
983.484
938.992
950.198
899.382
709.12
553.321
477.988
458.839
478.02
578.561
804.229
1024.59
1065.69
746.92
582.494
617.711
731.364
837.925
902.995
908.933
859.312
881.908
773.71
526.356
401.746
381.414
388.113
405.553
477.178
668.909
940.585
1010.78
649.406
470.089
531.508
660.086
777.689
854.96
861.896
812.259
742.577
499.978
356.888
340.368
340.172
342.016
343.187
354.528
454.838
791.401
950.896
543.411
368.014
454
590.41
719.574
820.525
858.16
780.729
541.089
365.876
338.788
336.764
337.225
337.532
335.922
333.833
362.534
568.391
874.773
468.697
299.797
391.049
521.195
656.506
788.424
898.488
732.976
401.895
341.934
336.47
336.534
337.217
337.481
335.666
332.237
336.822
414.706
776.075
434.352
285.713
330.648
445.053
572.728
723.505
915.313
631.063
358.465
337.404
336.052
336.386
337.198
337.364
335.398
331.832
328.29
349.208
641.485
426.459
292.74
281.742
341.721
454.279
608.103
874.403
493.977
345.275
336.134
335.843
336.171
337.006
336.989
334.572
330.825
326.659
327.815
485.944
384.694
278.004
226.542
209.102
229.699
420.831
750.985
397.139
338.769
335.525
335.636
335.906
336.557
335.777
332.578
328.783
325.787
317.327
387.211
17.9473
20.8597
23.9243
27.0579
31.5503
39.3788
52.2412
70.6458
92.9651
116.602
139.66
161.747
181.621
198.886
215.95
232.837
248.712
263.489
278.986
296.12
313.483
326.927
339.765
2.2441
1.92384
2.70974
3.77061
4.78663
5.58513
7.02745
11.0892
18.3766
28.7057
41.8753
56.8425
72.1791
84.5219
96.5205
111.563
126.957
140.468
156.254
180.164
205.175
223.147
227.185
0.888651
0.508272
0.430333
0.317944
0.227732
0.197862
0.246638
0.320288
0.364243
0.570998
2.13484
6.35018
11.2575
15.2791
19.5691
27.1613
35.0851
41.17
50.8933
79.2607
118.535
142.609
130.007
0.292996
0.0686458
0.0947497
0.0547364
0.0172303
0.0195879
0.0779144
0.15274
0.210139
0.258247
0.269933
0.30997
0.366391
0.452493
0.498032
0.411508
0.28935
0.0203123
-1.54255
-2.89818
19.5069
69.7268
68.2053
0.0734056
-0.127555
-0.0793137
-0.109398
-0.12119
-0.104228
-0.0616516
-0.0051337
0.0334791
0.0638898
0.0944318
0.137565
0.176594
0.176971
0.138717
0.0705225
-0.0245077
0.171662
2.00406
14.9426
28.9385
35.7432
35.7074
-0.059118
-0.158065
-0.194532
-0.219271
-0.22124
-0.202043
-0.171661
-0.128307
-0.102475
-0.0799818
-0.0570307
-0.0350636
-0.0233734
-0.0401106
-0.0921353
-0.187242
-0.335672
-0.472032
-0.587831
0.566627
4.74603
8.65842
15.8801
-0.22365
-0.247191
-0.288997
-0.316619
-0.322894
-0.314557
-0.298212
-0.276163
-0.259746
-0.246261
-0.233528
-0.224282
-0.222465
-0.237272
-0.276301
-0.35128
-0.467897
-0.579681
-0.545342
-0.305433
-0.0552397
0.497002
5.17682
-0.402843
-0.397855
-0.416297
-0.436424
-0.445659
-0.446012
-0.43848
-0.42568
-0.414036
-0.406014
-0.401526
-0.400295
-0.403832
-0.415717
-0.439205
-0.47427
-0.509759
-0.505235
-0.436238
-0.338204
-0.223206
-0.149
-0.023839
-0.570496
-0.563738
-0.573208
-0.58435
-0.591508
-0.594111
-0.590964
-0.584244
-0.578174
-0.57366
-0.571017
-0.571118
-0.574728
-0.582357
-0.594367
-0.606791
-0.610191
-0.589679
-0.538087
-0.443716
-0.306665
-0.173322
-0.0508566
-0.734693
-0.732318
-0.738934
-0.745114
-0.74959
-0.751707
-0.75076
-0.747883
-0.744872
-0.742364
-0.740896
-0.741096
-0.742914
-0.746236
-0.750193
-0.751349
-0.743189
-0.717111
-0.666838
-0.587071
-0.46402
-0.29908
-0.133366
-0.90108
-0.900322
-0.904839
-0.908527
-0.911343
-0.913057
-0.913194
-0.912093
-0.910493
-0.909187
-0.908721
-0.909149
-0.910108
-0.911135
-0.910942
-0.906643
-0.893813
-0.867227
-0.822237
-0.754479
-0.649268
-0.485297
-0.296187
-1.06732
-1.06724
-1.07016
-1.07246
-1.07443
-1.07604
-1.07679
-1.07681
-1.07655
-1.07649
-1.0768
-1.07739
-1.07802
-1.07813
-1.0765
-1.07088
-1.05831
-1.03587
-0.999885
-0.947194
-0.874145
-0.753548
-0.590744
-1.23272
-1.23317
-1.2351
-1.23681
-1.23848
-1.24012
-1.2414
-1.24241
-1.24333
-1.24432
-1.24544
-1.24666
-1.24774
-1.24817
-1.24695
-1.24255
-1.23326
-1.21774
-1.19372
-1.16031
-1.12489
-1.06518
-0.950064
-1.39758
-1.39823
-1.39967
-1.40122
-1.40288
-1.40473
-1.40653
-1.40837
-1.41026
-1.41229
-1.41449
-1.41683
-1.41909
-1.42087
-1.42148
-1.41996
-1.41546
-1.40787
-1.39681
-1.38316
-1.37493
-1.35731
-1.28789
-1.56188
-1.56255
-1.56382
-1.56537
-1.56719
-1.56941
-1.57176
-1.57438
-1.57726
-1.58045
-1.58398
-1.58778
-1.59173
-1.59558
-1.59895
-1.60137
-1.60259
-1.60329
-1.60464
-1.60862
-1.62112
-1.63365
-1.62586
-1.72555
-1.72621
-1.72747
-1.72916
-1.73127
-1.73386
-1.73685
-1.74029
-1.74421
-1.74866
-1.75365
-1.75919
-1.76523
-1.7717
-1.77851
-1.78561
-1.7933
-1.80282
-1.81653
-1.8384
-1.8785
-1.94712
-2.06559
-1.88857
-1.88923
-1.89058
-1.89247
-1.89491
-1.89796
-1.9016
-1.90588
-1.91086
-1.91659
-1.92315
-1.9306
-1.939
-1.94845
-1.95912
-1.97136
-1.98596
-2.00468
-2.03101
-2.07108
-2.14002
-2.26909
-2.50839
-2.05089
-2.05159
-2.05305
-2.05517
-2.05797
-2.06151
-2.06579
-2.07091
-2.07693
-2.08397
-2.09212
-2.10153
-2.11236
-2.12488
-2.13951
-2.15693
-2.17837
-2.20606
-2.24425
-2.30078
-2.39193
-2.55473
-2.86392
-2.21243
-2.21321
-2.21479
-2.21714
-2.22029
-2.22431
-2.22923
-2.23515
-2.24218
-2.25046
-2.26015
-2.27143
-2.2846
-2.30004
-2.31838
-2.34056
-2.36813
-2.4037
-2.45171
-2.52052
-2.62667
-2.80351
-3.13171
-2.37312
-2.37398
-2.37568
-2.37826
-2.38175
-2.38622
-2.39172
-2.39837
-2.40633
-2.41574
-2.42682
-2.43981
-2.45506
-2.47307
-2.49458
-2.52068
-2.55304
-2.59449
-2.64931
-2.72483
-2.83571
-3.01029
-3.30662
-2.53289
-2.53382
-2.53564
-2.53844
-2.54223
-2.5471
-2.55312
-2.56039
-2.56914
-2.57953
-2.59178
-2.6062
-2.62316
-2.64322
-2.66719
-2.69615
-2.73146
-2.77641
-2.83429
-2.91105
-3.01725
-3.17241
-3.39993
-2.69165
-2.69266
-2.69458
-2.69757
-2.70162
-2.70682
-2.71326
-2.72107
-2.73046
-2.7416
-2.75477
-2.77027
-2.78849
-2.81
-2.83554
-2.86617
-2.90333
-2.94931
-3.00692
-3.08041
-3.17577
-3.30267
-3.46737
-2.84935
-2.85043
-2.85243
-2.85558
-2.85984
-2.8653
-2.87207
-2.88029
-2.89014
-2.90183
-2.91563
-2.93184
-2.95088
-2.97323
-2.9996
-3.03092
-3.0684
-3.11369
-3.16888
-3.2367
-3.32036
-3.42442
-3.55115
-3.00593
-3.00707
-3.00913
-3.0124
-3.01681
-3.02247
-3.02947
-3.03796
-3.04811
-3.06013
-3.07428
-3.09086
-3.11025
-3.1329
-3.1594
-3.19052
-3.22723
-3.27069
-3.32235
-3.38391
-3.45717
-3.54435
-3.64594
-3.16136
-3.16254
-3.16464
-3.16798
-3.1725
-3.17828
-3.18541
-3.19404
-3.20432
-3.21646
-3.2307
-3.24732
-3.26666
-3.28911
-3.31516
-3.3454
-3.38057
-3.4215
-3.46912
-3.52445
-3.58838
-3.6617
-3.74383
-3.31562
-3.31682
-3.31893
-3.32231
-3.32686
-3.33268
-3.33985
-3.3485
-3.35877
-3.37085
-3.38495
-3.40133
-3.42027
-3.44212
-3.46726
-3.49614
-3.52929
-3.56726
-3.61065
-3.65998
-3.71558
-3.77749
-3.84487
-3.4687
-3.46991
-3.472
-3.47538
-3.4799
-3.48569
-3.4928
-3.50135
-3.51147
-3.52332
-3.53709
-3.55299
-3.57128
-3.59223
-3.61613
-3.64332
-3.67416
-3.70901
-3.74821
-3.79197
-3.84031
-3.89299
-3.94917
-3.62062
-3.62182
-3.62387
-3.62719
-3.63163
-3.63732
-3.64428
-3.65262
-3.66247
-3.67395
-3.68722
-3.70247
-3.7199
-3.73972
-3.76217
-3.78747
-3.81588
-3.8476
-3.88279
-3.92149
-3.96358
-4.00869
-4.05609
-3.7714
-3.7726
-3.77457
-3.7778
-3.7821
-3.78761
-3.79434
-3.80239
-3.81185
-3.82284
-3.83548
-3.84993
-3.86634
-3.88489
-3.90574
-3.92906
-3.955
-3.98367
-4.01511
-4.04927
-4.08596
-4.1248
-4.16516
-3.92107
-3.92227
-3.92413
-3.92724
-3.93136
-3.93663
-3.94305
-3.95072
-3.9597
-3.97009
-3.982
-3.99554
-4.01083
-4.02801
-4.0472
-4.0685
-4.092
-4.11774
-4.14571
-4.17581
-4.20782
-4.24139
-4.27601
-4.0697
-4.07089
-4.07262
-4.07557
-4.07946
-4.08444
-4.0905
-4.09771
-4.10614
-4.11585
-4.12694
-4.13948
-4.15358
-4.16934
-4.18682
-4.20611
-4.22724
-4.25022
-4.275
-4.30144
-4.32936
-4.35845
-4.38831
-4.21734
-4.21851
-4.2201
-4.22288
-4.22649
-4.23114
-4.23678
-4.24347
-4.25128
-4.26024
-4.27044
-4.28194
-4.2948
-4.30909
-4.32487
-4.34218
-4.36103
-4.38141
-4.40323
-4.42639
-4.45069
-4.4759
-4.5017
-4.36407
-4.36517
-4.36664
-4.36922
-4.37254
-4.37682
-4.38199
-4.38812
-4.39525
-4.40342
-4.41268
-4.42308
-4.43467
-4.44749
-4.46158
-4.47696
-4.49362
-4.51153
-4.53062
-4.55078
-4.57185
-4.59363
-4.61589
-4.50997
-4.51097
-4.51232
-4.51468
-4.51768
-4.52157
-4.52624
-4.53177
-4.53819
-4.54552
-4.55381
-4.56309
-4.57339
-4.58474
-4.59716
-4.61066
-4.62522
-4.6408
-4.65734
-4.67473
-4.69286
-4.71155
-4.73062
-4.65513
-4.656
-4.65724
-4.65935
-4.66203
-4.6655
-4.66964
-4.67456
-4.68023
-4.6867
-4.694
-4.70214
-4.71115
-4.72104
-4.73183
-4.7435
-4.75605
-4.76942
-4.78356
-4.79838
-4.81378
-4.82963
-4.8458
-4.79963
-4.80036
-4.80148
-4.80334
-4.80568
-4.80871
-4.81231
-4.81659
-4.82151
-4.8271
-4.8334
-4.8404
-4.84813
-4.85658
-4.86577
-4.87569
-4.8863
-4.89757
-4.90945
-4.92187
-4.93474
-4.94796
-4.96142
-4.94357
-4.94414
-4.94514
-4.94673
-4.94872
-4.95131
-4.95435
-4.95798
-4.96213
-4.96685
-4.97214
-4.97802
-4.98448
-4.99153
-4.99918
-5.00739
-5.01616
-5.02544
-5.0352
-5.04537
-5.05589
-5.06666
-5.07761
-5.08704
-5.08743
-5.08829
-5.08962
-5.09126
-5.09338
-5.09587
-5.09884
-5.10222
-5.10607
-5.11037
-5.11513
-5.12035
-5.12604
-5.13219
-5.13878
-5.14579
-5.15319
-5.16095
-5.16902
-5.17734
-5.18585
-5.19448
-5.23014
-5.23033
-5.23107
-5.23211
-5.23339
-5.23505
-5.23698
-5.23928
-5.24191
-5.24488
-5.2482
-5.25187
-5.25588
-5.26024
-5.26495
-5.26998
-5.27532
-5.28094
-5.28682
-5.29292
-5.2992
-5.30561
-5.31211
-5.37296
-5.37296
-5.37356
-5.3743
-5.37522
-5.37641
-5.37778
-5.37943
-5.38129
-5.38341
-5.38576
-5.38835
-5.39119
-5.39426
-5.39757
-5.40111
-5.40484
-5.40877
-5.41288
-5.41713
-5.42149
-5.42594
-5.43045
-5.51552
-5.5154
-5.51585
-5.51629
-5.51683
-5.51755
-5.51837
-5.51936
-5.52047
-5.52173
-5.52314
-5.52468
-5.52636
-5.52818
-5.53013
-5.53221
-5.53441
-5.53672
-5.53913
-5.54163
-5.54418
-5.54678
-5.54941
-5.65801
-5.65778
-5.65798
-5.65812
-5.6583
-5.65855
-5.65882
-5.65916
-5.65953
-5.65996
-5.66042
-5.66093
-5.66148
-5.66208
-5.66271
-5.66339
-5.6641
-5.66485
-5.66564
-5.66645
-5.66728
-5.66812
-5.66897
342.504
338.932
333.123
325.706
222.706
217.906
209.788
196.727
110.85
106.666
104.645
94.2326
50.6667
46.3002
40.3448
34.1435
40.6296
39.186
34.2572
31.4676
22.9308
25.2075
26.5847
28.022
9.74614
12.795
17.8137
22.6187
2.14313
3.59886
6.13629
12.7545
0.0624899
0.549303
3.80935
8.51791
0.0163909
0.00403911
-0.169992
1.1882
-0.169764
-0.11022
-0.102156
-0.277702
-0.480278
-0.414325
-0.376331
-0.426702
-0.86405
-0.807988
-0.779964
-0.824184
-1.21773
-1.16757
-1.10634
-1.02399
-1.5887
-1.53604
-1.44569
-1.38274
-2.1956
-2.27795
-2.36867
-2.60028
-2.76342
-2.92141
-3.13791
-3.66756
-3.24343
-3.51893
-3.89381
-4.62798
-3.59883
-3.97931
-4.50439
-5.2504
-3.72686
-4.08112
-4.51104
-4.94861
-3.6696
-3.88423
-4.12471
-4.35603
-3.63192
-3.7513
-3.87808
-4.00241
-3.66698
-3.74635
-3.82671
-3.9039
-3.73241
-3.78975
-3.84657
-3.90079
-3.80981
-3.85279
-3.89527
-3.93622
-3.89718
-3.93093
-3.9643
-3.99667
-3.99188
-4.01927
-4.04635
-4.07274
-4.09162
-4.11434
-4.13681
-4.15881
-4.19516
-4.21431
-4.23328
-4.25193
-4.30164
-4.31798
-4.33419
-4.35018
-4.41036
-4.42442
-4.43838
-4.45221
-4.52074
-4.53289
-4.54497
-4.55698
-4.63232
-4.64281
-4.65325
-4.66364
-4.74472
-4.75372
-4.76267
-4.77159
-4.85774
-4.86536
-4.87293
-4.88047
-4.97136
-4.97769
-4.98397
-4.99022
-5.08568
-5.09082
-5.09591
-5.10097
-5.20084
-5.20489
-5.20889
-5.21285
-5.31689
-5.31992
-5.32292
-5.3259
-5.43376
-5.43586
-5.43794
-5.44001
-5.55134
-5.55256
-5.55378
-5.55499
-5.66959
-5.66998
-5.67037
-5.67076
308.404
223.518
139.905
91.0241
85.9207
152.639
486.209
341.158
334.222
334.94
335.25
335.422
335.342
332.153
327.13
322.231
320.654
314.452
347.99
165.163
96.5659
50.2257
31.6498
34.2365
58.8331
231.748
320.617
334.233
334.497
334.861
334.917
332.157
317.748
305.767
303.85
302.53
300.636
325.929
62.2485
30.3295
26.8504
25.9739
26.0931
33.806
111.222
225.512
333.831
334.698
335.25
334.169
307.569
265.968
244.783
245.587
258.229
258.97
289.432
29.0163
25.8419
24.8343
25.12
26.0661
27.3691
30.5136
128.773
319.313
335.429
341.918
338.79
268.599
188.988
137.92
115.804
158.024
192.578
218.272
27.8647
24.3371
23.0353
23.4464
25.0544
26.5859
27.2638
63.1059
305.811
404.877
421.074
409.541
250.339
130.153
65.5839
50.5243
108.249
148.853
148.726
26.3577
23.5284
22.0766
22.1262
23.6576
25.7893
25.8236
22.9117
352.922
715.54
533.38
446.466
228.003
106.575
115.377
125.785
139.493
153.267
128.597
24.3194
23.2271
21.8544
21.7847
23.0401
25.4219
26.5971
34.944
412.349
641.859
401.23
337.409
195.629
142.275
133.089
138.521
157.079
174.128
161.286
23.0389
22.8555
21.5965
21.9905
23.8888
26.4568
26.9729
74.8796
245.569
236.599
122.676
118.013
111.822
129.014
136.676
140.833
164.203
192.261
163.604
19.8717
21.4041
24.3463
28.6394
29.8163
29.5586
29.4446
46.7742
62.2086
70
59.4936
42.0459
54.4461
96.3556
111.265
117.787
130.544
160.501
146.103
7.45232
24.083
56.6287
65.787
62.8217
36.6442
26.044
18.0257
30.8515
47.602
43.3228
27.6354
22.6682
32.4454
70.5678
111.023
149.644
165.017
131.588
0.31446
12.2232
49.6627
131.225
140.527
43.7174
11.0291
10.86
16.3723
34.6527
30.242
12.6789
4.31822
-0.869364
19.0483
62.4921
125.486
141.798
100.338
-0.551034
2.01624
17.2511
71.1077
101.26
41.2876
11.7827
10.6101
14.1806
15.1868
7.65723
2.93751
0.827106
-1.35317
-1.39591
4.69156
19.0414
49.5163
81.7034
-0.750952
2.18373
11.357
38.2642
63.4658
31.2134
12.4401
12.031
14.0394
16.6481
-0.384978
-1.05287
-1.59903
-2.63653
-2.85239
-1.94566
2.83073
24.531
119.534
-1.01121
-2.43969
-1.28845
15.2086
32.9463
31.7868
5.37685
10.9824
6.04769
-3.65224
-4.65614
-2.78932
-2.98604
-3.41696
-3.54918
-3.49307
-1.30577
10.1366
48.466
-1.6488
-1.06725
5.06143
2.52443
10.61
17.5219
13.4997
4.50043
-3.32046
-5.7391
-4.87045
-3.43518
-3.69385
-3.81544
-3.8486
-3.89135
-2.57802
3.43246
20.9076
-3.34527
-3.7879
0.132632
6.95393
11.163
11.9033
6.20358
1.55118
-3.88762
-4.96598
-4.52136
-3.84917
-4.1012
-4.11698
-4.02809
-4.00455
-3.2391
-0.583017
9.23714
-4.97924
-5.08969
-4.86479
-4.46412
-4.09073
-3.90689
-3.95626
-4.40219
-4.74991
-4.75491
-4.5584
-4.362
-4.48821
-4.40737
-4.22562
-4.13048
-3.76761
-3.20311
-0.210456
-5.54575
-5.45848
-5.00892
-4.4541
-4.03887
-3.83595
-3.82962
-3.98787
-4.21555
-4.54212
-4.7624
-4.80256
-4.75033
-4.56992
-4.31367
-4.14668
-3.86381
-3.70704
-2.89191
-5.90106
-5.54688
-4.95419
-4.3696
-3.94799
-3.7205
-3.63484
-3.67064
-3.87963
-4.3604
-4.81526
-4.94752
-4.81
-4.5543
-4.27598
-4.09298
-3.89718
-3.95734
-3.26694
-5.37476
-5.22007
-4.72646
-4.25184
-3.91467
-3.70385
-3.58644
-3.5758
-3.74013
-4.21423
-4.67182
-4.80588
-4.65147
-4.39232
-4.14489
-4.01099
-3.92972
-4.16492
-3.35235
-4.65891
-4.67535
-4.43161
-4.14493
-3.92597
-3.78199
-3.69669
-3.67353
-3.78097
-4.06808
-4.38312
-4.49641
-4.38284
-4.17193
-3.97004
-3.86578
-3.88
-4.15026
-3.9054
-4.19729
-4.29141
-4.22461
-4.08692
-3.96256
-3.87187
-3.81247
-3.79736
-3.85031
-3.98787
-4.15133
-4.2206
-4.14753
-3.98827
-3.81112
-3.66773
-3.64498
-3.81868
-4.14609
-4.02809
-4.13064
-4.12684
-4.07268
-4.00983
-3.95744
-3.92033
-3.90577
-3.92599
-3.98734
-4.06251
-4.09227
-4.03345
-3.89669
-3.7104
-3.48676
-3.32179
-3.2904
-2.70033
-3.9871
-4.071
-4.09752
-4.08715
-4.06246
-4.03731
-4.01826
-4.01103
-4.02213
-4.05288
-4.08677
-4.08921
-4.02789
-3.89576
-3.69009
-3.4072
-3.0792
-2.88752
0.653082
-4.00176
-4.0722
-4.11007
-4.12152
-4.11946
-4.11307
-4.10822
-4.10964
-4.12128
-4.14226
-4.16064
-4.15432
-4.09935
-3.98466
-3.797
-3.48707
-3.13731
-3.30287
1.62742
-4.04874
-4.10859
-4.14862
-4.17056
-4.18163
-4.18785
-4.19413
-4.2047
-4.22213
-4.24439
-4.26304
-4.26446
-4.23355
-4.16682
-4.08463
-3.84388
-3.67038
-4.18379
-2.95552
-4.11541
-4.16662
-4.20525
-4.23176
-4.24985
-4.26398
-4.27854
-4.29804
-4.32408
-4.35373
-4.38188
-4.40203
-4.40891
-4.41522
-4.49937
-4.50238
-4.47637
-5.59336
-4.53649
-4.19458
-4.2389
-4.27494
-4.30268
-4.32417
-4.34272
-4.36299
-4.39061
-4.42595
-4.46507
-4.50642
-4.54922
-4.59723
-4.67925
-4.91035
-5.28622
-5.37545
-5.6844
-5.2481
-4.28242
-4.32119
-4.35438
-4.38173
-4.40445
-4.42498
-4.44882
-4.48303
-4.52603
-4.57304
-4.62614
-4.68783
-4.76581
-4.89111
-5.19708
-5.8421
-6.03418
-5.87401
-5.43526
-4.37649
-4.41074
-4.44122
-4.46759
-4.49054
-4.51168
-4.53711
-4.57484
-4.62154
-4.67228
-4.73107
-4.79944
-4.88054
-5.00625
-5.26972
-5.88583
-5.93433
-5.74509
-5.14167
-4.4751
-4.50556
-4.53361
-4.55897
-4.58196
-4.60349
-4.62871
-4.66522
-4.70993
-4.75872
-4.81421
-4.87466
-4.93575
-5.0159
-5.14182
-5.43674
-5.44545
-5.4227
-4.80705
-4.57695
-4.60411
-4.6299
-4.65419
-4.67727
-4.6996
-4.72394
-4.75522
-4.79231
-4.83252
-4.87597
-4.9199
-4.95296
-4.98098
-4.99304
-5.09239
-5.09788
-5.11729
-4.38568
-4.68102
-4.70509
-4.72854
-4.75135
-4.77381
-4.79668
-4.82032
-4.84608
-4.87375
-4.90175
-4.92939
-4.95416
-4.96275
-4.95267
-4.94623
-4.97507
-4.96759
-4.96642
-4.76544
-4.78656
-4.80758
-4.82837
-4.84897
-4.86959
-4.89113
-4.91341
-4.93565
-4.95689
-4.97575
-4.99209
-5.00438
-5.00313
-4.98795
-4.9729
-4.96929
-4.95312
-4.90296
-4.81101
-4.89315
-4.91111
-4.92902
-4.94694
-4.9647
-4.98322
-5.00254
-5.02177
-5.03941
-5.05373
-5.06416
-5.07005
-5.06577
-5.05054
-5.0302
-5.01219
-4.9924
-4.947
-4.90399
-5.00073
-5.01567
-5.03059
-5.04538
-5.06045
-5.07574
-5.09149
-5.1071
-5.12162
-5.13385
-5.14206
-5.14441
-5.13776
-5.12281
-5.10257
-5.08493
-5.06729
-5.03317
-5.00321
-5.10945
-5.12158
-5.13376
-5.14596
-5.15826
-5.17075
-5.18363
-5.19612
-5.20762
-5.21817
-5.22589
-5.22705
-5.21955
-5.20697
-5.19036
-5.17755
-5.16418
-5.14213
-5.12394
-5.21951
-5.2291
-5.2388
-5.24864
-5.2586
-5.26879
-5.27946
-5.28965
-5.29907
-5.30843
-5.31582
-5.31688
-5.31061
-5.302
-5.29065
-5.28375
-5.27543
-5.26427
-5.25751
-5.33091
-5.33819
-5.34564
-5.35335
-5.36131
-5.36958
-5.37845
-5.38702
-5.39531
-5.40404
-5.41123
-5.41317
-5.41005
-5.40609
-5.40066
-5.3991
-5.39582
-5.39232
-5.39215
-5.4435
-5.44864
-5.45402
-5.45971
-5.46588
-5.47259
-5.48003
-5.48763
-5.49556
-5.5041
-5.5114
-5.51509
-5.51606
-5.51674
-5.51713
-5.52009
-5.52143
-5.52276
-5.52496
-5.55704
-5.5601
-5.56342
-5.56724
-5.57178
-5.57718
-5.58352
-5.59055
-5.59846
-5.60704
-5.61487
-5.62085
-5.62603
-5.63155
-5.63772
-5.64536
-5.6511
-5.65631
-5.6586
-5.67142
-5.67245
-5.67364
-5.67544
-5.67824
-5.68229
-5.6876
-5.69422
-5.70234
-5.71112
-5.7195
-5.72754
-5.73704
-5.74819
-5.76108
-5.77532
-5.7857
-5.79645
-5.79647
)
;

boundaryField
{
    leftWall
    {
        type            calculated;
        value           nonuniform List<scalar> 
50
(
497.332
437.972
377.284
315.835
254.317
192.869
131.453
69.8474
17.9473
2.2441
0.888651
0.292996
0.0734056
-0.059118
-0.22365
-0.402843
-0.570496
-0.734693
-0.90108
-1.06732
-1.23272
-1.39758
-1.56188
-1.72555
-1.88857
-2.05089
-2.21243
-2.37312
-2.53289
-2.69165
-2.84935
-3.00593
-3.16136
-3.31562
-3.4687
-3.62062
-3.7714
-3.92107
-4.0697
-4.21734
-4.36407
-4.50997
-4.65513
-4.79963
-4.94357
-5.08704
-5.23014
-5.37296
-5.51552
-5.65801
)
;
    }
    rightWall
    {
        type            calculated;
        value           nonuniform List<scalar> 
50
(
1065.69
1010.78
950.896
874.773
776.075
641.485
485.944
387.211
347.99
325.929
289.432
218.272
148.726
128.597
161.286
163.604
146.103
131.588
100.338
81.7034
119.534
48.466
20.9076
9.23714
-0.210456
-2.89191
-3.26694
-3.35235
-3.9054
-4.14609
-2.70033
0.653082
1.62742
-2.95552
-4.53649
-5.2481
-5.43526
-5.14167
-4.80705
-4.38568
-4.76544
-4.81101
-4.90399
-5.00321
-5.12394
-5.25751
-5.39215
-5.52496
-5.6586
-5.79647
)
;
    }
    lowerWall
    {
        type            calculated;
        value           nonuniform List<scalar> 
62
(
526.761
526.456
528.186
532.592
541.433
556.467
577.529
601.072
623.89
645.543
666.531
686.973
706.74
725.671
743.632
760.047
774.871
786.618
791.647
794.279
802.79
828.552
854.548
825.149
761.123
697.891
638.779
582.994
527.794
473.941
422.715
405.102
401.529
395.721
388.303
812.903
746.92
649.406
543.411
468.697
434.352
426.459
384.694
838.43
716.33
739.149
830.058
929.069
992.278
1007.04
959.873
977.066
928.811
738.549
582.75
507.416
488.259
507.141
607.272
832.55
1053.03
1093.72
)
;
    }
    atmosphere
    {
        type            calculated;
        value           nonuniform List<scalar> 
46
(
-5.72904
-5.72904
-5.72904
-5.72904
-5.72904
-5.72904
-5.72904
-5.72904
-5.72904
-5.72904
-5.72904
-5.72904
-5.72904
-5.72904
-5.72904
-5.72904
-5.72904
-5.72904
-5.72904
-5.72904
-5.72904
-5.72904
-5.72904
-5.72904
-5.72904
-5.72904
-5.72904
-5.72904
-5.72904
-5.72905
-5.72973
-5.73152
-5.7349
-5.7396
-5.74607
-5.75454
-5.76338
-5.77152
-5.77994
-5.792
-5.80651
-5.82391
-5.84359
-5.8557
-5.87303
-5.86825
)
;
    }
    defaultFaces
    {
        type            empty;
    }
}


// ************************************************************************* //
