/*--------------------------------*- C++ -*----------------------------------*\
| =========                 |                                                 |
| \\      /  F ield         | OpenFOAM: The Open Source CFD Toolbox           |
|  \\    /   O peration     | Version:  5.x                                   |
|   \\  /    A nd           | Web:      www.OpenFOAM.org                      |
|    \\/     M anipulation  |                                                 |
\*---------------------------------------------------------------------------*/
FoamFile
{
    version     2.0;
    format      ascii;
    class       volScalarField;
    location    "0.7";
    object      p_rgh;
}
// * * * * * * * * * * * * * * * * * * * * * * * * * * * * * * * * * * * * * //

dimensions      [1 -1 -2 0 0 0 0];

internalField   nonuniform List<scalar> 
2268
(
526.761
526.456
528.186
532.592
541.433
556.467
577.529
601.072
623.89
645.543
666.531
686.973
706.74
725.671
743.632
760.047
774.871
786.618
791.647
794.279
802.79
828.552
854.548
526.261
525.503
527.103
531.405
539.984
555.038
576.492
600.597
623.773
645.576
666.615
687.076
706.855
725.791
743.787
760.403
775.454
788.664
793.244
790.916
794.418
817.789
849.411
524.43
523.417
525.202
529.356
537.281
552.125
574.244
599.596
623.588
645.692
666.844
687.334
707.081
725.919
743.754
760.412
775.8
790.576
800.852
791.048
785.65
807.158
845.038
521.84
520.658
522.552
526.356
533.289
547.74
571.031
598.392
623.567
646.033
667.284
687.802
707.546
726.323
744.065
760.699
776.17
790.558
802.548
803.33
790.46
807.852
844.699
519.181
517.696
519.425
522.811
529.023
543.145
568.225
597.612
623.91
646.683
668.018
688.54
708.269
726.99
744.685
761.335
776.841
790.943
804.057
810.036
806.394
824.765
847.858
516.592
514.832
515.98
518.97
525.175
540.146
566.574
597.243
624.347
647.51
669.054
689.561
709.246
727.869
745.516
762.193
777.816
792.351
805.917
815.873
824.601
833.605
851.517
514.034
512.931
513.129
515.766
522.999
539.143
565.638
596.329
624.058
647.974
670.016
690.883
710.55
729.004
746.552
763.222
778.925
793.7
807.736
820.216
831.84
841.56
856.523
497.61
480.722
465.078
454.893
458.001
478.655
525.124
589.468
623.019
648.33
671.231
692.398
712.022
730.152
747.631
764.393
780.218
795.136
810.013
823.986
837.927
848.905
864.155
838.43
716.33
739.149
830.058
929.069
992.278
1007.04
959.873
977.066
928.811
738.549
582.75
507.416
488.259
507.141
607.272
832.55
1053.03
1093.72
828.274
670.782
705.999
819.652
926.213
991.283
995.52
943.55
969.598
861.998
614.637
476.379
453.059
463.967
485.508
561.208
756.215
1028.87
1099.06
796.371
617.233
678.653
807.225
924.836
1002.11
1004.46
954.72
888.321
618.929
390.165
355.158
353.812
363.336
374.23
407.402
547.788
935.185
1098.04
749.416
574.015
656.415
796.291
925.579
1026.51
1058.45
980.588
703.531
388.675
339.228
337.007
337.471
337.787
336.239
334.667
366.058
670.845
1080.78
733.561
483.106
637.002
786.034
921.367
1053.27
1163.31
984.161
543.218
342.667
336.78
336.847
337.528
337.797
335.994
332.572
337.895
455.369
1040.94
624.036
447.252
635.152
768.693
896.428
1047.2
1239
917.866
386.252
337.84
336.439
336.766
337.585
337.765
335.808
332.249
328.706
373.246
965.208
520.816
573.446
661.151
724.141
836.822
990.646
1256.95
796.245
346.097
336.601
336.309
336.627
337.506
337.606
335.086
331.319
327.204
341.534
766.41
764.067
712.072
663.28
647.758
645.12
862.227
1191.1
643.003
339.406
336.075
336.175
336.453
337.325
337.253
333.595
329.685
326.466
323.07
520.077
164.2
163.367
164.766
175.302
210.503
279.01
373.294
476.202
568.162
635.599
673.127
695.214
715.088
732.353
749.417
766.304
782.179
796.956
812.453
829.587
846.95
860.394
873.232
4.51733
14.8623
27.2289
41.1502
53.0592
61.9835
76.9333
121.964
204.589
318.895
443.56
553.216
628.474
677.111
734.224
765.838
785.116
799.072
814.892
838.819
863.829
881.797
885.838
1.6725
1.29221
1.2142
1.10182
1.01166
0.99881
1.03049
1.10414
1.1481
1.35485
27.5738
85.8584
149.297
200.306
258.177
362.299
459.424
500.628
526.032
627.075
760.282
846.375
875.857
1.20205
0.977703
1.00381
0.963791
0.926283
0.928639
0.986965
1.06179
1.11919
1.1673
1.179
1.21911
1.2763
1.36644
1.43048
1.42253
1.60599
2.56035
28.6982
133.819
423.862
735.202
638.352
1.10765
0.906735
0.955009
0.92485
0.913055
0.930017
0.972594
1.02911
1.06774
1.09815
1.12869
1.17183
1.21095
1.21227
1.18498
1.13731
1.11903
1.72754
71.0528
353.501
425.155
287.359
99.6274
1.10032
1.00144
0.965018
0.94018
0.938199
0.957397
0.987778
1.03113
1.05706
1.07964
1.10243
1.12575
1.14692
1.13241
1.08113
1.00299
0.867408
0.699624
0.993253
13.4625
86.5435
175.577
262.296
1.06098
1.03745
0.995678
0.968026
0.961741
0.970077
0.986423
1.00847
1.02497
1.03863
1.05134
1.0614
1.06566
1.05104
1.00976
0.933981
0.817161
0.706084
0.798052
1.01713
1.38697
3.09926
155.858
1.00699
1.01197
0.993532
0.973406
0.96417
0.963817
0.971349
0.984149
0.995843
1.004
1.00849
1.00995
1.00679
0.994486
0.970631
0.935587
0.900247
0.905253
0.976068
1.10974
1.22245
1.43376
2.83202
0.964528
0.971286
0.961815
0.950673
0.943516
0.940912
0.94406
0.950779
0.956855
0.961374
0.964025
0.96453
0.961343
0.953598
0.940661
0.928248
0.925016
0.947132
0.999102
1.09359
1.2502
1.47462
1.74971
0.925525
0.9279
0.921284
0.915104
0.910628
0.908511
0.909458
0.912335
0.915346
0.917854
0.919322
0.91945
0.918437
0.914936
0.910029
0.908894
0.917623
0.944042
0.993727
1.07372
1.36864
1.78375
1.9552
0.884332
0.88509
0.880574
0.876885
0.874069
0.872355
0.872218
0.87332
0.87492
0.876226
0.876692
0.876279
0.87547
0.874444
0.874475
0.878833
0.891815
0.9182
0.96322
1.03203
1.42228
1.8035
1.71777
0.843285
0.843365
0.840444
0.838148
0.836174
0.834565
0.833814
0.833796
0.834058
0.834121
0.83381
0.833218
0.832587
0.832472
0.834109
0.839755
0.852296
0.87475
0.910737
0.963681
1.31064
1.6919
1.52328
0.803082
0.802635
0.800703
0.798992
0.797326
0.795681
0.794404
0.793391
0.792474
0.791479
0.790358
0.789146
0.788063
0.787636
0.788856
0.793251
0.802537
0.818061
0.842088
0.875638
1.08365
1.49782
1.30187
0.763416
0.76277
0.761326
0.759778
0.758115
0.756264
0.754462
0.752627
0.750734
0.748707
0.746505
0.744167
0.741904
0.740126
0.739519
0.741037
0.745538
0.753129
0.764187
0.777986
0.866654
1.00679
1.08416
0.724311
0.723636
0.722374
0.720817
0.718999
0.716785
0.71443
0.711813
0.708931
0.705736
0.702214
0.69841
0.69446
0.690609
0.687239
0.684823
0.683605
0.682904
0.681559
0.677824
0.764215
0.945805
0.90791
0.685833
0.685176
0.683914
0.682223
0.68012
0.677521
0.674537
0.671098
0.667176
0.662729
0.657736
0.652199
0.646154
0.63968
0.632875
0.625774
0.618085
0.608564
0.594867
0.573318
0.639609
1.02854
0.965658
0.64801
0.64735
0.646002
0.64411
0.641668
0.638615
0.63498
0.6307
0.625724
0.619987
0.613427
0.60598
0.597579
0.588129
0.57746
0.565217
0.550624
0.5319
0.505578
0.465738
0.48
0.781168
0.62049
0.610887
0.610181
0.608721
0.606607
0.603805
0.600269
0.595981
0.590864
0.58484
0.577806
0.569653
0.560248
0.549415
0.536895
0.522268
0.504844
0.483407
0.455713
0.417525
0.361078
0.309097
0.272256
-0.00290944
0.574539
0.573762
0.572182
0.569832
0.566675
0.562661
0.557741
0.55182
0.544787
0.536506
0.526822
0.515534
0.50237
0.486926
0.468588
0.446406
0.418839
0.383272
0.335262
0.266715
0.164938
-0.0129494
-0.33688
0.539041
0.538184
0.536485
0.5339
0.53041
0.525947
0.520443
0.513789
0.505834
0.49642
0.485345
0.472356
0.457107
0.439096
0.417585
0.39148
0.359125
0.317673
0.26285
0.187387
0.0765232
-0.0975838
-0.393091
0.504472
0.503533
0.501723
0.498921
0.495125
0.490263
0.484241
0.476969
0.468215
0.457828
0.445575
0.431162
0.414199
0.394133
0.370171
0.341205
0.305902
0.260948
0.203067
0.126309
0.0201129
-0.134977
-0.362381
0.470903
0.469887
0.467976
0.464983
0.460929
0.455735
0.449296
0.441477
0.432096
0.420948
0.407783
0.392286
0.374058
0.352551
0.327008
0.296386
0.259224
0.213246
0.155635
0.082139
-0.0132144
-0.140112
-0.304797
0.438398
0.437315
0.435321
0.432168
0.427907
0.422444
0.415676
0.407455
0.397609
0.385919
0.372119
0.355902
0.336871
0.314515
0.288145
0.256829
0.219348
0.174054
0.118871
0.0510508
-0.0326174
-0.136675
-0.263398
0.407011
0.405871
0.403815
0.400543
0.396128
0.390467
0.383467
0.374979
0.364834
0.352815
0.338664
0.322082
0.302695
0.280046
0.253545
0.222419
0.185714
0.14225
0.0905908
0.0290288
-0.0442284
-0.131411
-0.233001
0.376776
0.375596
0.373501
0.370151
0.365639
0.359858
0.352725
0.344099
0.333816
0.321673
0.307432
0.290811
0.271473
0.249024
0.222979
0.192733
0.157563
0.116639
0.0690174
0.0136823
-0.0502431
-0.123562
-0.205698
0.347713
0.346511
0.344401
0.341018
0.33647
0.330648
0.323478
0.314835
0.304565
0.292484
0.278381
0.262003
0.243056
0.221208
0.196071
0.167193
0.134045
0.0960694
0.0526844
0.00334888
-0.0522494
-0.114158
-0.181542
0.319826
0.318617
0.316521
0.313149
0.308625
0.302837
0.295725
0.287178
0.277059
0.265206
0.251437
0.235531
0.217245
0.1963
0.172396
0.145206
0.114365
0.0795102
0.0403188
-0.00344192
-0.0517886
-0.104463
-0.160649
0.293102
0.291896
0.289845
0.286527
0.282085
0.276402
0.26944
0.261096
0.25125
0.23977
0.226497
0.211248
0.193823
0.174
0.151553
0.126246
0.0978433
0.0661218
0.0309343
-0.00776968
-0.0498594
-0.0949724
-0.142372
0.267517
0.266317
0.264344
0.261117
0.256811
0.251303
0.244572
0.236524
0.227062
0.216076
0.203434
0.188986
0.172573
0.154024
0.13317
0.109849
0.0839138
0.0552471
0.0238058
-0.010357
-0.0470445
-0.0858819
-0.126244
0.243035
0.241837
0.239974
0.236871
0.232752
0.22748
0.221054
0.213386
0.204404
0.194014
0.182107
0.168569
0.153275
0.136096
0.116911
0.0956114
0.0721119
0.046367
0.0183941
-0.0117021
-0.0437079
-0.0772774
-0.111905
0.219603
0.21841
0.216679
0.213729
0.209843
0.20486
0.198803
0.19159
0.183165
0.173453
0.162367
0.14982
0.135719
0.119968
0.102483
0.083196
0.0620624
0.0390818
0.0143069
-0.0121411
-0.0400579
-0.0691445
-0.0990048
0.197156
0.195991
0.194397
0.191621
0.188005
0.183354
0.177721
0.171024
0.163222
0.154255
0.144056
0.132561
0.119701
0.105408
0.0896277
0.072319
0.0534655
0.0330917
0.0112674
-0.0118879
-0.0361929
-0.0614005
-0.0872038
0.17562
0.174522
0.173052
0.170476
0.167156
0.162872
0.157706
0.151571
0.144443
0.136275
0.127014
0.116613
0.105024
0.0922023
0.0781129
0.0627359
0.0460726
0.0281602
0.00907109
-0.0110848
-0.0321539
-0.0539368
-0.0761946
0.154915
0.153917
0.152562
0.150209
0.147204
0.143316
0.138649
0.133113
0.126697
0.119365
0.111076
0.101798
0.0914973
0.0801461
0.0677247
0.0542261
0.0396643
0.0240818
0.00754633
-0.00984666
-0.0279691
-0.0466611
-0.0657382
0.134953
0.134077
0.132837
0.130727
0.128049
0.124581
0.120439
0.115526
0.109848
0.103377
0.0960818
0.0879401
0.0789319
0.06904
0.0582546
0.046578
0.0340329
0.0206618
0.00652475
-0.0082981
-0.0236998
-0.0395527
-0.0557165
0.115644
0.114911
0.113791
0.111933
0.109594
0.106563
0.102963
0.0986899
0.0937692
0.088172
0.0818791
0.0748754
0.0671499
0.0586932
0.0495028
0.0395888
0.0289767
0.0177057
0.00582603
-0.00659486
-0.0194661
-0.0326858
-0.0461476
0.0968974
0.0963304
0.0953339
0.0937377
0.0917457
0.0891629
0.0861159
0.0824942
0.0783396
0.0736212
0.0683284
0.0624534
0.0559912
0.0489373
0.0412949
0.0330783
0.0243116
0.0150285
0.00527089
-0.00490303
-0.0154157
-0.0261877
-0.0371387
0.078622
0.0782356
0.0773709
0.0760459
0.0744082
0.072283
0.0697932
0.0668291
0.0634419
0.0595992
0.0552984
0.0505373
0.045313
0.0396249
0.0334782
0.0268881
0.019877
0.0124725
0.00471141
-0.00335873
-0.0116759
-0.0201809
-0.0288166
0.0607185
0.0605266
0.0597937
0.0587507
0.0574728
0.0558116
0.0538824
0.0515762
0.0489537
0.0459801
0.0426599
0.0389933
0.0349776
0.0306149
0.0259116
0.0208807
0.015543
0.00991854
0.00403804
-0.00206417
-0.00834117
-0.0147492
-0.0212501
0.0430964
0.0430969
0.0424969
0.0417493
0.0408369
0.0396435
0.0382738
0.0366239
0.0347612
0.0326475
0.0302942
0.0277008
0.0248657
0.0217899
0.0184805
0.0149483
0.0112097
0.00727901
0.00317585
-0.00107592
-0.00544049
-0.00989012
-0.0143987
0.0257248
0.0258496
0.0253964
0.0249599
0.0244147
0.0236948
0.0228792
0.021887
0.0207774
0.019514
0.0181131
0.0165732
0.0148931
0.0130717
0.0111154
0.00903474
0.00683674
0.00452844
0.00211597
-0.000381154
-0.00293642
-0.0055366
-0.00816602
0.00843026
0.00866478
0.00846114
0.00832344
0.00814097
0.00789007
0.00761949
0.0072795
0.00690949
0.00648522
0.00602087
0.00551284
0.00496088
0.00436524
0.00372929
0.00305667
0.00234376
0.00159184
0.000803289
-1.05798e-05
-0.000840169
-0.00168012
-0.0025282
875.972
872.399
866.591
859.173
881.359
876.555
868.432
855.363
838.26
800.402
769.53
718.783
136.731
58.0863
49.2772
35.7938
91.8959
78.035
51.6198
34.1516
277.43
286.167
210.58
37.0253
298.878
307.453
319.371
326.576
123.721
334.545
339.716
351.793
3.4794
43.5322
318.707
382.378
2.26177
3.2319
6.15432
143.281
1.89418
2.16153
2.74518
4.26683
1.64695
1.79251
2.05312
2.61605
1.3885
1.47303
1.61189
1.93607
1.17334
1.26369
1.52458
2.43133
0.98201
1.19571
1.95317
4.73842
0.776385
0.7492
1.1849
2.11728
0.0588845
0.148598
3.34319
13.5532
-0.452225
-0.312428
9.4741
17.1469
-0.726001
-0.715474
4.49433
11.3732
-0.797208
-1.0106
-1.23376
-1.39823
-0.631703
-0.844435
-1.07725
-1.30334
-0.469313
-0.588508
-0.714632
-0.838546
-0.379233
-0.458589
-0.5389
-0.616065
-0.319465
-0.376809
-0.433625
-0.487844
-0.27167
-0.314655
-0.357137
-0.398083
-0.233847
-0.267602
-0.300967
-0.333339
-0.203358
-0.23075
-0.257827
-0.28422
-0.177905
-0.200617
-0.223092
-0.245094
-0.156249
-0.175396
-0.194367
-0.213013
-0.13753
-0.153871
-0.170081
-0.186075
-0.121055
-0.135114
-0.149081
-0.162912
-0.106247
-0.118394
-0.130477
-0.14248
-0.0926263
-0.103115
-0.113557
-0.12395
-0.079831
-0.0888289
-0.0977846
-0.106703
-0.0676591
-0.075277
-0.0828502
-0.0903904
-0.0560829
-0.0624127
-0.068698
-0.074948
-0.0452084
-0.0503484
-0.0554443
-0.0604964
-0.0351758
-0.0392229
-0.0432258
-0.0471875
-0.0260298
-0.0290645
-0.0320657
-0.0350441
-0.0177049
-0.0198053
-0.0218883
-0.0239581
-0.0100896
-0.0113122
-0.0125301
-0.013742
-0.00314399
-0.00353641
-0.00392534
-0.00431436
841.85
756.092
652.176
424.426
297.827
520.254
1009.33
672.094
337.37
335.625
335.915
336.117
337.208
336.875
330.815
323.741
321.592
316.076
432.78
821.884
671.828
246.647
52.2824
204.947
503.391
849.502
901.019
342.542
335.351
335.706
336.029
350.474
391.472
416.705
364.313
306.79
303.091
424.773
455.73
78.0861
28.2387
27.6649
27.7395
208.155
765.554
956.952
440.391
335.715
336.638
363.388
639.015
769.204
806.617
710.509
322.278
262.468
598.796
30.5045
27.2671
26.1621
26.5078
27.4564
39.1013
487.485
977.036
1024.38
355.06
358.861
777.493
963.624
880.685
831.475
806.771
357.147
200.24
668.096
29.4926
25.848
24.5325
24.9296
26.5461
28.1656
127.916
950.084
1200.07
892.979
504.466
1191.5
1041.08
920.897
852.541
785.104
241.001
157.741
690.354
28.8746
25.2697
23.7398
23.7894
25.3208
27.4588
30.9686
566.493
1354.55
1416.2
1063.92
1325.72
1114.47
902.756
562.069
319.444
149.456
162.804
760.216
120.158
25.8146
23.7833
23.6275
24.8933
27.3899
33.9325
639.3
1522.13
1276.86
1329.25
1305.79
1166.47
428.581
148.004
149.819
167.59
184.847
952.727
362.575
73.3512
24.4341
24.1117
26.0479
30.4044
190.329
1080.8
1331.2
668.231
433.236
756.447
1126.3
489.806
178.361
174.767
206.2
304.674
1178.8
396.506
390.38
58.7821
32.5863
34.3093
128.749
749.667
942.904
406.992
215.547
97.775
109.931
750.799
1120.97
895.516
814.007
1057.35
1194.68
1332.07
379.428
435.964
468.779
167.5
87.4995
301.018
465.293
148.756
72.688
93.433
80.0243
32.6857
197.799
1127.62
1524.46
1660.82
1741.1
1767.24
1635.21
56.6846
419.275
492.892
574.476
248.757
74.6464
24.8988
15.0671
35.0839
169.024
136.877
14.9691
6.30437
45.7131
558.347
886.048
1338.51
1864.21
1885.75
4.32435
22.6859
350.852
577.467
489.498
50.0323
16.2847
15.0158
18.6813
316.907
115.532
4.97273
2.75985
0.669162
1.02645
8.92408
39.0364
775.381
1992.31
3.27621
10.2193
107.112
601.226
993.721
430.138
18.1494
16.6403
18.6626
343.397
90.8543
1.00615
0.438359
-0.590939
-0.736166
0.630908
7.33646
97.8322
1461.2
5.88476
206.917
821.261
1003.22
1021.15
1019.25
482.438
139.867
357.243
347.313
4.60965
-0.626643
-0.824983
-1.25562
-1.38048
-1.24698
1.45068
38.8038
145.419
16.0129
448.294
1025.31
1047.91
1055.28
1056.29
1047.16
1001.86
277.136
21.7558
-2.57681
-1.1491
-1.40765
-1.52925
-1.56206
-1.59897
3.06819
25.4607
112.142
7.20037
47.8471
198.405
454.539
593.904
619.562
384.478
239.869
70.6041
-2.42474
-2.10793
-1.43782
-1.6898
-1.70558
-1.61673
-1.57918
16.544
22.3261
441.091
17.3403
-2.54596
-2.32296
-1.92513
-1.55271
-1.36788
-1.40818
-1.78136
-1.95853
-2.1901
-2.02271
-1.82541
-1.95162
-1.87078
-1.68903
-1.59389
9.57164
3.82762
67.0208
17.2131
-2.76937
-2.34462
-1.79045
-1.3761
-1.17293
-1.16638
-1.28215
-1.51483
-1.8752
-2.10058
-2.14076
-2.08854
-1.90814
-1.65189
-1.4849
0.0780742
-0.920812
-0.23014
6.49048
-2.47132
-2.12086
-1.57127
-1.1601
-0.932472
-0.846877
-0.872501
-1.08789
-1.57267
-2.02819
-2.16049
-2.02271
-1.76705
-1.48899
-1.2888
-1.0699
-1.13535
-0.479971
-2.2022
-2.10661
-1.76968
-1.33933
-1.00196
-0.790439
-0.674205
-0.663583
-0.827559
-1.30129
-1.75836
-1.89295
-1.73851
-1.47971
-1.2327
-0.590404
-0.903645
-1.01234
-0.440182
-1.60351
-1.62399
-1.38929
-1.10755
-0.88861
-0.744628
-0.65926
-0.63615
-0.743573
-1.03064
-1.34498
-1.45823
-1.34467
-1.13438
-0.932652
-0.124232
-0.221923
-0.843665
-0.868045
-1.03286
-1.12775
-1.06205
-0.924367
-0.80001
-0.709316
-0.649898
-0.634784
-0.687734
-0.825267
-0.98871
-1.05798
-0.984938
-0.825689
-0.648536
0.239496
0.256464
-0.392253
-1.01183
-0.740255
-0.842871
-0.839092
-0.784927
-0.722082
-0.669693
-0.632481
-0.617482
-0.637458
-0.69878
-0.773856
-0.803654
-0.745466
-0.608909
-0.422619
0.556144
0.476363
0.290628
117.493
-0.574153
-0.658056
-0.684578
-0.674211
-0.649516
-0.624368
-0.605198
-0.596507
-0.60738
-0.638121
-0.67201
-0.674459
-0.613562
-0.482727
-0.277107
0.526295
0.685108
0.868584
1352.33
-0.463621
-0.53406
-0.571932
-0.583378
-0.581324
-0.574931
-0.570083
-0.571477
-0.582449
-0.602353
-0.620621
-0.614307
-0.559332
-0.446216
-0.258804
0.0758059
1.33738
0.670374
2197.62
-0.385412
-0.445257
-0.485291
-0.507226
-0.518294
-0.524516
-0.530792
-0.541367
-0.558792
-0.581056
-0.598321
-0.599183
-0.568342
-0.503172
-0.421079
0.848407
20.031
1.29244
1287.2
-0.326882
-0.37809
-0.416722
-0.443234
-0.461323
-0.475451
-0.489996
-0.509495
-0.535547
-0.565202
-0.593348
-0.611851
-0.618637
-0.626337
-0.710464
3.65291
27.3882
15.835
27.2989
-0.280862
-0.325179
-0.361222
-0.388959
-0.410452
-0.428992
-0.449252
-0.476869
-0.512221
-0.55135
-0.592701
-0.635185
-0.682401
-0.765133
-0.996228
6.07621
27.8475
4.73341
-1.33438
-0.243506
-0.28228
-0.31547
-0.342811
-0.36554
-0.386063
-0.409903
-0.444109
-0.487116
-0.534121
-0.587225
-0.64891
-0.726442
-0.851596
-1.15775
5.31258
21.5426
-1.81128
-1.39634
-0.212386
-0.246627
-0.277107
-0.303476
-0.326433
-0.347575
-0.372988
-0.410724
-0.457424
-0.508163
-0.566958
-0.635323
-0.716415
-0.842104
-1.10555
1.41659
-1.74121
-1.57469
1.92217
-0.185796
-0.216253
-0.244308
-0.269666
-0.292658
-0.314187
-0.338731
-0.375292
-0.420585
-0.469403
-0.524896
-0.585345
-0.6464
-0.726559
-0.852478
-0.457069
-1.14966
-1.13086
71.3728
-0.162451
-0.189608
-0.215405
-0.239693
-0.262771
-0.285037
-0.308213
-0.339496
-0.377666
-0.41801
-0.458255
-0.491288
-0.46267
-0.556492
-0.578475
-0.550762
-0.65845
-0.702027
103.397
-0.141326
-0.165401
-0.188844
-0.211657
-0.234121
-0.256945
-0.279485
-0.305129
-0.333447
-0.362036
-0.380557
-0.337111
-0.327645
-0.358913
-0.405754
-0.423193
-0.412651
-0.425944
3.42612
-0.121669
-0.142689
-0.163482
-0.184079
-0.204708
-0.226246
-0.248358
-0.26965
-0.290887
-0.310471
-0.319023
-0.320465
-0.301848
-0.305945
-0.30792
-0.304393
-0.288193
-0.238039
-0.146125
-0.103069
-0.121027
-0.138937
-0.156855
-0.17462
-0.193144
-0.212459
-0.231693
-0.248981
-0.262804
-0.27407
-0.279949
-0.27565
-0.260416
-0.240083
-0.222101
-0.202308
-0.155397
-0.113699
-0.0854504
-0.100396
-0.115314
-0.130102
-0.145177
-0.160468
-0.176211
-0.191826
-0.206346
-0.218546
-0.226771
-0.229106
-0.222441
-0.207391
-0.187187
-0.169646
-0.150898
-0.115202
-0.0871592
-0.0689795
-0.0811132
-0.0932853
-0.105488
-0.117789
-0.13028
-0.143158
-0.155655
-0.167154
-0.177704
-0.185418
-0.18652
-0.17886
-0.166213
-0.149719
-0.137076
-0.120961
-0.0988935
-0.082694
-0.0538466
-0.0634365
-0.0731332
-0.0829711
-0.0929313
-0.103123
-0.113793
-0.123982
-0.133404
-0.142768
-0.149993
-0.150896
-0.144631
-0.136059
-0.124958
-0.118087
-0.107185
-0.0965152
-0.0917267
-0.0400546
-0.0473351
-0.0547805
-0.0624882
-0.0704461
-0.0787186
-0.0875936
-0.0961625
-0.104448
-0.113176
-0.120099
-0.121989
-0.118963
-0.115226
-0.109803
-0.108244
-0.104487
-0.101465
-0.101293
-0.0274471
-0.0325843
-0.0379644
-0.0436556
-0.0498279
-0.0565341
-0.0639776
-0.0715803
-0.07951
-0.0880402
-0.0953258
-0.0989767
-0.100004
-0.100687
-0.101072
-0.104013
-0.105371
-0.106708
-0.108902
-0.0157905
-0.018849
-0.0221731
-0.0259906
-0.0305329
-0.0359298
-0.0422729
-0.0493046
-0.0572072
-0.0657943
-0.073626
-0.0796062
-0.0847835
-0.0903006
-0.0964768
-0.10409
-0.109855
-0.115065
-0.117355
-0.00498013
-0.00600654
-0.00719802
-0.00899532
-0.0117997
-0.0158452
-0.0211533
-0.0277723
-0.035902
-0.0446811
-0.0530601
-0.0610982
-0.0705983
-0.0817445
-0.0946422
-0.108878
-0.119262
-0.130004
-0.130025
)
;

boundaryField
{
    leftWall
    {
        type            fixedFluxPressure;
        gradient        uniform 0;
        value           nonuniform List<scalar> 
50
(
526.761
526.261
524.43
521.84
519.181
516.592
514.034
497.61
164.2
4.51733
1.6725
1.20205
1.10765
1.10032
1.06098
1.00699
0.964528
0.925525
0.884332
0.843285
0.803082
0.763416
0.724311
0.685833
0.64801
0.610887
0.574539
0.539041
0.504472
0.470903
0.438398
0.407011
0.376776
0.347713
0.319826
0.293102
0.267517
0.243035
0.219603
0.197156
0.17562
0.154915
0.134953
0.115644
0.0968974
0.078622
0.0607185
0.0430964
0.0257248
0.00843026
)
;
    }
    rightWall
    {
        type            fixedFluxPressure;
        gradient        uniform 0;
        value           nonuniform List<scalar> 
50
(
1093.72
1099.06
1098.04
1080.78
1040.94
965.208
766.41
520.077
432.78
424.773
598.796
668.096
690.354
760.216
952.727
1178.8
1332.07
1635.21
1885.75
1992.31
1461.2
145.419
112.142
441.091
67.0208
-0.23014
-0.479971
-0.440182
-0.868045
-1.01183
117.493
1352.33
2197.62
1287.2
27.2989
-1.33438
-1.39634
1.92217
71.3728
103.397
3.42612
-0.146125
-0.113699
-0.0871592
-0.082694
-0.0917267
-0.101293
-0.108902
-0.117355
-0.130025
)
;
    }
    lowerWall
    {
        type            fixedFluxPressure;
        gradient        uniform 0;
        value           nonuniform List<scalar> 
62
(
526.761
526.456
528.186
532.592
541.433
556.467
577.529
601.072
623.89
645.543
666.531
686.973
706.74
725.671
743.632
760.047
774.871
786.618
791.647
794.279
802.79
828.552
854.548
854.548
849.411
845.038
844.699
847.858
851.517
856.523
864.155
875.972
872.399
866.591
859.173
838.43
828.274
796.371
749.416
733.561
624.036
520.816
764.067
838.43
716.33
739.149
830.058
929.069
992.278
1007.04
959.873
977.066
928.811
738.549
582.75
507.416
488.259
507.141
607.272
832.55
1053.03
1093.72
)
;
    }
    atmosphere
    {
        type            totalPressure;
        rho             rho;
        psi             none;
        gamma           1;
        p0              uniform 0;
        value           nonuniform List<scalar> 
46
(
0
0
0
0
0
0
0
0
0
0
0
0
0
0
0
0
0
0
0
0
0
0
0
0
0
0
0
0
0
-9.64899e-06
-0.000691394
-0.00248325
-0.00585605
-0.0105606
-0.0170308
-0.0254968
-0.034345
-0.0424822
-0.0509027
-0.0629619
-0.0774702
-0.0948737
-0.11455
-0.126661
-0.143989
-0.139206
)
;
    }
    defaultFaces
    {
        type            empty;
    }
}


// ************************************************************************* //
