/*--------------------------------*- C++ -*----------------------------------*\
| =========                 |                                                 |
| \\      /  F ield         | OpenFOAM: The Open Source CFD Toolbox           |
|  \\    /   O peration     | Version:  5.x                                   |
|   \\  /    A nd           | Web:      www.OpenFOAM.org                      |
|    \\/     M anipulation  |                                                 |
\*---------------------------------------------------------------------------*/
FoamFile
{
    version     2.0;
    format      ascii;
    class       surfaceScalarField;
    location    "0.7";
    object      phi;
}
// * * * * * * * * * * * * * * * * * * * * * * * * * * * * * * * * * * * * * //

dimensions      [0 3 -1 0 0 0 0];

internalField   nonuniform List<scalar> 
4432
(
-3.52941e-06
3.52941e-06
-7.1801e-06
3.6507e-06
-9.59044e-06
2.41034e-06
-1.1239e-05
1.64855e-06
-1.20441e-05
8.05069e-07
-1.13132e-05
-7.30895e-07
-8.8586e-06
-2.45457e-06
-5.71479e-06
-3.14381e-06
-3.25485e-06
-2.45994e-06
-1.98759e-06
-1.26726e-06
-1.81083e-06
-1.76758e-07
-2.52311e-06
7.12283e-07
-3.83898e-06
1.31587e-06
-5.57134e-06
1.73236e-06
-7.81538e-06
2.24404e-06
-1.05269e-05
2.71156e-06
-1.28239e-05
2.29696e-06
-1.3971e-05
1.14706e-06
-1.76576e-05
3.68667e-06
-2.3847e-05
6.18935e-06
-2.43628e-05
5.15789e-07
-1.47705e-05
-9.59231e-06
-1.47705e-05
-4.54804e-06
8.07744e-06
-7.75845e-06
6.86111e-06
-9.60059e-06
4.25247e-06
-1.11957e-05
3.24365e-06
-1.22771e-05
1.88647e-06
-1.18028e-05
-1.20522e-06
-9.36477e-06
-4.89257e-06
-6.02522e-06
-6.48335e-06
-3.32709e-06
-5.15807e-06
-1.92703e-06
-2.66731e-06
-1.4844e-06
-6.19389e-07
-1.60188e-06
8.29765e-07
-2.06573e-06
1.77972e-06
-2.83305e-06
2.49969e-06
-3.94039e-06
3.35137e-06
-5.78541e-06
4.55659e-06
-8.86911e-06
5.38066e-06
-1.34594e-05
5.73733e-06
-1.82195e-05
8.44681e-06
-2.07626e-05
8.73245e-06
-1.83838e-05
-1.86299e-06
-1.0683e-05
-1.72931e-05
-2.54535e-05
-3.69371e-06
1.17712e-05
-6.29551e-06
9.46289e-06
-8.251e-06
6.20796e-06
-1.03478e-05
5.34042e-06
-1.1927e-05
3.46573e-06
-1.17304e-05
-1.4019e-06
-9.56914e-06
-7.05378e-06
-6.48206e-06
-9.57042e-06
-3.88493e-06
-7.7552e-06
-2.45464e-06
-4.0976e-06
-2.08329e-06
-9.90734e-07
-2.28636e-06
1.03284e-06
-2.65468e-06
2.14804e-06
-2.93865e-06
2.78366e-06
-2.91873e-06
3.33146e-06
-2.78528e-06
4.42314e-06
-3.39851e-06
5.99389e-06
-5.51848e-06
7.85731e-06
-7.70567e-06
1.0634e-05
-9.00056e-06
1.00273e-05
-8.27918e-06
-2.58438e-06
-4.36743e-06
-2.12048e-05
-2.98209e-05
-2.27472e-06
1.40459e-05
-4.13798e-06
1.13262e-05
-5.93046e-06
8.00044e-06
-7.74079e-06
7.15074e-06
-8.83998e-06
4.56493e-06
-8.5199e-06
-1.72199e-06
-7.14387e-06
-8.42982e-06
-5.50241e-06
-1.12119e-05
-4.08717e-06
-9.17044e-06
-3.18103e-06
-5.00375e-06
-2.90855e-06
-1.26321e-06
-3.16541e-06
1.2897e-06
-3.62281e-06
2.60544e-06
-3.90309e-06
3.06394e-06
-3.7476e-06
3.17597e-06
-3.03435e-06
3.70988e-06
-1.80588e-06
4.76542e-06
-6.04508e-07
6.65593e-06
1.17583e-06
8.85365e-06
2.68235e-06
8.52083e-06
2.08093e-06
-1.98296e-06
1.71669e-06
-2.08406e-05
-2.81042e-05
-4.54707e-07
1.45006e-05
-8.91803e-07
1.17633e-05
-1.85704e-06
8.96568e-06
-2.46306e-06
7.75675e-06
-2.04113e-06
4.143e-06
-1.11507e-06
-2.64805e-06
-1.09908e-06
-8.44581e-06
-2.16936e-06
-1.01416e-05
-3.23137e-06
-8.10842e-06
-3.75457e-06
-4.48054e-06
-3.94226e-06
-1.07552e-06
-4.20747e-06
1.55491e-06
-4.57748e-06
2.97545e-06
-4.75386e-06
3.24032e-06
-4.49344e-06
2.91555e-06
-3.78062e-06
2.99706e-06
-2.39028e-06
3.37508e-06
-9.92633e-08
4.36492e-06
3.67103e-06
5.08336e-06
7.56582e-06
4.62604e-06
7.91289e-06
-2.33003e-06
4.88514e-06
-1.78128e-05
-2.32191e-05
1.85603e-06
1.26445e-05
3.22993e-06
1.03893e-05
4.11734e-06
8.07827e-06
5.5207e-06
6.35339e-06
7.40073e-06
2.26296e-06
8.02552e-06
-3.27284e-06
6.10962e-06
-6.52991e-06
2.47806e-06
-6.51003e-06
-1.39052e-06
-4.23985e-06
-3.86949e-06
-2.00157e-06
-4.89053e-06
-5.44824e-08
-5.35214e-06
2.01652e-06
-5.61643e-06
3.23973e-06
-5.58601e-06
3.2099e-06
-5.07441e-06
2.40395e-06
-4.19721e-06
2.11987e-06
-2.97002e-06
2.14789e-06
-1.08045e-06
2.47535e-06
2.1324e-06
1.8705e-06
6.30035e-06
4.58107e-07
7.91066e-06
-3.94035e-06
5.45963e-06
-1.53618e-05
-1.77595e-05
3.53572e-06
9.10882e-06
7.4964e-06
6.42867e-06
1.15415e-05
4.03315e-06
1.55017e-05
2.39317e-06
1.77985e-05
-3.38353e-08
1.63058e-05
-1.78012e-06
1.14617e-05
-1.6858e-06
5.61153e-06
-6.59848e-07
2.53902e-07
1.11778e-06
-3.56629e-06
1.81863e-06
-5.52971e-06
1.90893e-06
-6.43837e-06
2.92518e-06
-6.74094e-06
3.5423e-06
-6.50489e-06
2.97386e-06
-5.62471e-06
1.52376e-06
-4.4501e-06
9.4526e-07
-3.13348e-06
8.31266e-07
-1.51774e-06
8.59614e-07
5.06456e-07
-1.53702e-07
3.49502e-06
-2.53045e-06
5.28651e-06
-5.73184e-06
4.45195e-06
-1.45272e-05
-1.33075e-05
6.61878e-06
2.49004e-06
1.40278e-05
-9.80361e-07
1.9138e-05
-1.07704e-06
2.15828e-05
-5.16025e-08
2.06675e-05
8.81417e-07
1.60348e-05
2.85263e-06
9.75063e-06
4.59834e-06
4.07487e-06
5.01591e-06
-2.32652e-07
5.4253e-06
-3.27667e-06
4.86265e-06
-5.3167e-06
3.94896e-06
-6.79963e-06
4.40811e-06
-7.57028e-06
4.31295e-06
-7.48658e-06
2.89016e-06
-6.36955e-06
4.06731e-07
-4.89421e-06
-5.30081e-07
-3.35566e-06
-7.07281e-07
-1.72326e-06
-7.72787e-07
-3.59522e-08
-1.84101e-06
1.75438e-06
-4.32078e-06
3.04651e-06
-7.02397e-06
3.08289e-06
-1.45636e-05
-1.02246e-05
-2.80735e-05
2.80735e-05
-5.20514e-05
2.39779e-05
-4.93627e-05
-2.68865e-06
-3.69958e-05
-1.23669e-05
-2.33848e-05
-1.3611e-05
-9.19257e-06
-1.41922e-05
1.69702e-05
-2.61628e-05
2.04321e-05
-3.46186e-06
-1.37872e-05
3.42193e-05
-7.19904e-05
5.82032e-05
-0.000116386
4.43954e-05
-0.000131614
1.5228e-05
-0.000128206
-3.40838e-06
-0.000117648
-1.05572e-05
-0.000103771
-1.3877e-05
-8.56497e-05
-1.81216e-05
-5.50722e-05
-3.05776e-05
-1.05148e-05
-4.45574e-05
-1.05148e-05
-3.41905e-05
6.2264e-05
-4.41543e-05
3.39417e-05
-3.46838e-05
-1.21592e-05
-2.35825e-05
-2.34682e-05
-1.30604e-05
-2.41332e-05
-8.61028e-08
-2.71665e-05
1.40699e-05
-4.03188e-05
-1.84261e-05
2.90342e-05
-8.525e-05
0.000101043
-0.000139849
0.000112803
-0.00015757
6.21164e-05
-0.000153223
1.08805e-05
-0.000145439
-1.1192e-05
-0.000135319
-2.06774e-05
-0.00012138
-2.78165e-05
-0.000102938
-3.65631e-05
-7.44725e-05
-5.90431e-05
-2.87292e-05
-9.03008e-05
-3.92439e-05
-2.45628e-05
8.68268e-05
-2.68867e-05
3.62656e-05
-1.82902e-05
-2.07557e-05
-7.88441e-06
-3.3874e-05
-2.77539e-06
-2.92422e-05
-2.0181e-09
-2.99399e-05
-1.239e-05
-2.79309e-05
-6.86833e-05
8.53275e-05
-0.000132132
0.000164492
-0.000165996
0.000146666
-0.00017651
7.26309e-05
-0.000175646
1.00159e-05
-0.000171335
-1.55024e-05
-0.0001629
-2.91124e-05
-0.00014809
-4.26263e-05
-0.000124244
-6.0409e-05
-9.06924e-05
-9.25951e-05
-3.98953e-05
-0.000141098
-7.91392e-05
-1.14291e-05
9.82559e-05
-4.09483e-06
2.89314e-05
9.38836e-07
-2.57893e-05
7.68254e-06
-4.06177e-05
6.76011e-06
-2.83198e-05
-4.69787e-06
-1.84819e-05
-3.69647e-05
4.33594e-06
-9.61569e-05
0.00014452
-0.000145895
0.00021423
-0.000155183
0.000155954
-0.000156269
7.37175e-05
-0.00014777
1.51663e-06
-0.000127355
-3.59174e-05
-0.000128546
-2.79214e-05
-0.000144075
-2.70977e-05
-0.000139587
-6.48963e-05
-0.000107024
-0.000125158
-4.3241e-05
-0.000204881
-0.00012238
-9.7319e-07
9.92291e-05
1.2355e-05
1.56031e-05
2.01181e-05
-3.35524e-05
2.44594e-05
-4.49589e-05
1.68535e-05
-2.0714e-05
-9.07697e-06
7.44862e-06
-5.14682e-05
4.67272e-05
-0.000109198
0.000202249
-0.000138921
0.000243953
-0.000132378
0.000149411
-0.000118957
6.0297e-05
-8.92526e-05
-2.81881e-05
-4.34576e-05
-8.17125e-05
-2.90693e-06
-6.84719e-05
-3.15098e-05
1.50514e-06
-9.18229e-05
-4.58309e-06
-0.000100247
-0.000116734
-3.93459e-05
-0.000265782
-0.000161726
1.51486e-05
8.40805e-05
2.61729e-05
4.57882e-06
3.74305e-05
-4.481e-05
4.10371e-05
-4.85656e-05
2.8688e-05
-8.36483e-06
-4.72785e-06
4.08645e-05
-5.02043e-05
9.22036e-05
-9.78716e-05
0.000249917
-0.000111171
0.000257252
-9.82967e-05
0.000136537
-8.44735e-05
4.64739e-05
-4.69006e-05
-6.57609e-05
2.05545e-05
-0.000149168
0.000107856
-0.000155774
0.000150847
-4.14854e-05
6.20285e-05
8.4235e-05
-5.37406e-05
-9.65339e-07
-3.20759e-05
-0.000287447
-0.000193802
3.1767e-05
5.23135e-05
4.04955e-05
-4.14972e-06
5.00204e-05
-5.43349e-05
5.27056e-05
-5.12508e-05
3.90516e-05
5.28919e-06
2.8964e-06
7.70196e-05
-3.80645e-05
0.000133164
-6.40479e-05
0.0002759
-7.17009e-05
0.000264905
-7.50458e-05
0.000139882
-5.93872e-05
3.08153e-05
-1.88796e-05
-0.000106269
4.11136e-05
-0.000209161
9.92057e-05
-0.000213866
0.000178978
-0.000121258
0.000210795
5.24184e-05
5.54007e-05
0.000154429
-2.22374e-05
-0.000209809
-0.00021604
2.99382e-05
2.23753e-05
4.49959e-05
-1.92074e-05
5.18205e-05
-6.11595e-05
5.26794e-05
-5.21097e-05
3.8181e-05
1.97876e-05
1.02184e-05
0.000104982
-2.32984e-05
0.000166681
-2.6006e-05
0.000278608
-3.56863e-05
0.000274585
-5.91534e-05
0.000163349
-3.71763e-05
8.83816e-06
1.00683e-05
-0.000153513
5.42276e-05
-0.00025332
8.86261e-05
-0.000248264
0.000136862
-0.000169494
0.000204153
-1.48728e-05
0.000158394
0.000200187
-1.02097e-05
-4.12045e-05
-0.000226249
2.60825e-06
-1.18215e-07
-3.47966e-06
5.10755e-06
-9.69267e-06
5.13598e-06
-1.27565e-05
3.01224e-06
-1.35293e-05
1.65424e-06
-1.39685e-05
3.29182e-06
-1.43434e-05
4.97326e-06
-1.42435e-05
4.91597e-06
-1.31962e-05
4.37797e-06
-1.20575e-05
3.72396e-06
-1.20256e-05
3.91706e-06
-1.35141e-05
5.89664e-06
-1.53847e-05
6.18354e-06
-1.53646e-05
2.8701e-06
-1.24553e-05
-2.50263e-06
-9.27916e-06
-3.70619e-06
-6.64396e-06
-3.34248e-06
-4.17276e-06
-3.24398e-06
-1.16937e-06
-4.8444e-06
1.796e-06
-7.28615e-06
5.00781e-06
-1.02358e-05
6.55337e-06
-1.61092e-05
-1.68508e-05
1.31795e-05
-0.0001157
0.000115582
-0.000123004
1.24109e-05
-0.000102713
-1.51547e-05
-8.94441e-05
-1.02565e-05
-8.36107e-05
-4.17919e-06
-8.0838e-05
5.19142e-07
-7.84248e-05
2.56003e-06
-7.14628e-05
-2.04602e-06
-6.01909e-05
-6.89395e-06
-4.7094e-05
-9.37291e-06
-3.3531e-05
-9.64596e-06
-2.34245e-05
-4.20981e-06
-1.65021e-05
-7.38851e-07
-1.03251e-05
-3.30691e-06
-5.93147e-06
-6.89629e-06
-3.46088e-06
-6.17678e-06
-1.81092e-06
-4.99245e-06
5.90677e-07
-5.64558e-06
3.09835e-06
-7.35208e-06
3.74515e-06
-7.93294e-06
4.5275e-06
-1.10181e-05
6.49581e-06
-1.80775e-05
-2.33652e-05
1.30103e-05
-5.99531e-05
0.000175535
-0.000108344
6.08024e-05
-0.000145559
2.206e-05
-0.000178615
2.27992e-05
-0.0002002
1.74058e-05
-0.000209408
9.7281e-06
-0.000206946
9.82226e-08
-0.000196791
-1.22017e-05
-0.000180432
-2.32526e-05
-0.000159732
-3.0073e-05
-0.000119671
-4.97065e-05
-8.55379e-05
-3.83432e-05
-6.8955e-05
-1.73217e-05
-6.02397e-05
-1.20222e-05
-4.92195e-05
-1.79165e-05
-3.41257e-05
-2.12706e-05
-2.42208e-05
-1.48973e-05
-1.89547e-05
-1.09117e-05
-1.40205e-05
-1.22863e-05
-1.06567e-05
-1.12967e-05
-9.31145e-06
-1.23634e-05
-7.26141e-06
-2.01275e-05
-2.86176e-05
-2.00904e-06
-1.94521e-05
0.000194987
-5.79441e-05
9.92946e-05
-9.1361e-05
5.54771e-05
-0.000106514
3.79525e-05
-0.000110096
2.09879e-05
-0.000108197
7.82879e-06
-0.000103773
-4.32503e-06
-0.000106466
-9.50864e-06
-0.000124376
-5.34318e-06
-0.000148301
-6.14754e-06
-0.000184309
-1.3699e-05
-0.000214181
-8.47076e-06
-0.00023952
8.01697e-06
-0.000265099
1.35561e-05
-0.000284429
1.41356e-06
-0.000291768
-1.39316e-05
-0.000273784
-3.28812e-05
-0.00023165
-5.30457e-05
-0.000187442
-5.64939e-05
-0.000153754
-4.49851e-05
-0.000131947
-3.417e-05
-0.000111671
-4.04036e-05
-5.81913e-05
-8.20974e-05
2.99362e-05
0.000165051
3.13184e-06
0.000126099
-1.44647e-05
7.30738e-05
-1.7544e-05
4.10321e-05
-1.6742e-05
2.01861e-05
-1.80316e-05
9.11859e-06
-1.85817e-05
-3.77486e-06
-1.76223e-05
-1.0468e-05
-1.90143e-05
-3.95119e-06
-3.4545e-05
9.383e-06
-6.57536e-05
1.75094e-05
-9.29407e-05
1.87162e-05
-0.000113864
2.89404e-05
-0.00013715
3.68418e-05
-0.000170407
3.46707e-05
-0.000208798
2.44594e-05
-0.00024269
1.01047e-06
-0.000264892
-3.08432e-05
-0.000251304
-7.00819e-05
-0.000232191
-6.4098e-05
-0.00022143
-4.49314e-05
-0.000210364
-5.14697e-05
-7.2886e-05
-0.000195669
4.47192e-05
0.000120332
4.41806e-05
0.000126638
3.53195e-05
8.19351e-05
3.12855e-05
4.50662e-05
2.61975e-05
2.52743e-05
1.60493e-05
1.92669e-05
1.81664e-07
1.20928e-05
-1.7932e-05
7.6456e-06
-2.93503e-05
7.46706e-06
-3.19951e-05
1.20276e-05
-3.65276e-05
2.20417e-05
-4.66162e-05
2.88047e-05
-5.23636e-05
3.46877e-05
-5.68806e-05
4.13588e-05
-7.21053e-05
4.98956e-05
-0.000100946
5.33003e-05
-0.000139717
3.97813e-05
-0.000174072
3.51183e-06
-0.000216175
-2.79789e-05
-0.000239567
-4.07061e-05
-0.000234413
-5.00858e-05
-0.000211692
-7.41905e-05
-8.73813e-05
-0.000197196
2.79765e-05
9.23558e-05
4.85315e-05
0.000106083
5.07409e-05
7.97258e-05
4.378e-05
5.20272e-05
3.3226e-05
3.58283e-05
2.1833e-05
3.06599e-05
7.76594e-06
2.61598e-05
-7.43649e-06
2.28479e-05
-2.2011e-05
2.20414e-05
-3.28052e-05
2.28218e-05
-3.86642e-05
2.79006e-05
-4.35131e-05
3.36537e-05
-4.51028e-05
3.62774e-05
-4.21693e-05
3.84253e-05
-3.74324e-05
4.51588e-05
-3.39836e-05
4.98515e-05
-3.56115e-05
4.14092e-05
-5.224e-05
2.01404e-05
-8.36722e-05
3.45324e-06
-0.000110789
-1.35895e-05
-0.000142316
-1.85584e-05
-0.00017943
-3.70769e-05
-9.3543e-05
-0.000173268
9.45743e-06
8.28985e-05
3.20546e-05
8.34862e-05
4.00461e-05
7.17344e-05
3.55615e-05
5.65119e-05
2.59057e-05
4.5484e-05
1.61011e-05
4.04645e-05
5.13778e-06
3.7123e-05
-6.94708e-06
3.49327e-05
-1.77481e-05
3.28423e-05
-2.61173e-05
3.11909e-05
-3.10896e-05
3.28729e-05
-3.33208e-05
3.58849e-05
-3.43974e-05
3.73542e-05
-3.43338e-05
3.83618e-05
-3.10909e-05
4.1916e-05
-2.50172e-05
4.37778e-05
-2.3123e-05
3.95149e-05
-3.30202e-05
3.00375e-05
-4.85216e-05
1.89546e-05
-7.21442e-05
1.0033e-05
-0.00010231
1.16077e-05
-0.000138366
-1.0217e-06
-5.60068e-05
-0.000175902
2.37156e-06
8.0527e-05
1.7249e-05
6.86088e-05
2.41215e-05
6.48619e-05
2.25059e-05
5.81275e-05
1.66298e-05
5.13601e-05
1.01048e-05
4.69894e-05
2.92867e-06
4.4299e-05
-4.66611e-06
4.25274e-05
-1.214e-05
4.03161e-05
-1.92621e-05
3.8313e-05
-2.40397e-05
3.76506e-05
-2.59878e-05
3.78331e-05
-2.69099e-05
3.82764e-05
-2.8081e-05
3.9533e-05
-2.83284e-05
4.21636e-05
-2.73386e-05
4.2788e-05
-2.78288e-05
4.00051e-05
-3.37221e-05
3.59307e-05
-4.68041e-05
3.20364e-05
-6.3117e-05
2.63458e-05
-7.25096e-05
2.10001e-05
-9.60118e-05
2.24805e-05
2.23707e-06
-0.000154256
1.43837e-06
7.90887e-05
9.3356e-06
6.07115e-05
1.33733e-05
6.08241e-05
1.31019e-05
5.83987e-05
1.02268e-05
5.4235e-05
6.51731e-06
5.06988e-05
2.32464e-06
4.84915e-05
-2.22281e-06
4.70747e-05
-7.40186e-06
4.54952e-05
-1.28141e-05
4.37253e-05
-1.72286e-05
4.20652e-05
-2.03058e-05
4.09105e-05
-2.27923e-05
4.0763e-05
-2.51845e-05
4.19253e-05
-2.69106e-05
4.38896e-05
-2.82754e-05
4.41528e-05
-3.05451e-05
4.22747e-05
-3.53193e-05
4.07049e-05
-4.32893e-05
4.00063e-05
-5.22386e-05
3.52951e-05
-5.69672e-05
2.57287e-05
-7.20077e-05
3.7521e-05
6.34005e-05
-0.000133171
1.12766e-06
7.7961e-05
5.37732e-06
5.64617e-05
7.62573e-06
5.85755e-05
7.77215e-06
5.82522e-05
6.4097e-06
5.55973e-05
4.22466e-06
5.28837e-05
1.60009e-06
5.1116e-05
-1.34346e-06
5.00181e-05
-4.7464e-06
4.88981e-05
-8.43421e-06
4.74131e-05
-1.21608e-05
4.57919e-05
-1.58776e-05
4.46273e-05
-1.95846e-05
4.447e-05
-2.30413e-05
4.53819e-05
-2.582e-05
4.66683e-05
-2.82733e-05
4.66061e-05
-3.09137e-05
4.49151e-05
-3.34098e-05
4.3201e-05
-3.51536e-05
4.175e-05
-3.7534e-05
3.76755e-05
-4.41549e-05
3.23495e-05
-6.53623e-05
5.87284e-05
0.000115432
-0.000117393
7.15745e-07
7.72452e-05
3.14197e-06
5.40353e-05
4.44536e-06
5.7272e-05
4.6387e-06
5.80587e-05
3.87227e-06
5.63636e-05
2.38648e-06
5.43694e-05
5.21265e-07
5.29811e-05
-1.55565e-06
5.2095e-05
-3.91824e-06
5.12607e-05
-6.71634e-06
5.02113e-05
-1.0039e-05
4.91147e-05
-1.38284e-05
4.84167e-05
-1.78163e-05
4.84578e-05
-2.15728e-05
4.91384e-05
-2.48067e-05
4.99022e-05
-2.77859e-05
4.95853e-05
-3.04255e-05
4.75546e-05
-3.16161e-05
4.43916e-05
-3.13059e-05
4.14399e-05
-3.35422e-05
3.99118e-05
-4.56709e-05
4.44782e-05
-7.06467e-05
8.37042e-05
0.000155815
-0.00011103
5.13056e-07
7.6732e-05
1.82897e-06
5.27193e-05
2.53226e-06
5.65686e-05
2.62011e-06
5.79707e-05
2.05414e-06
5.69295e-05
9.13265e-07
5.55102e-05
-5.79917e-07
5.44742e-05
-2.26897e-06
5.37841e-05
-4.23966e-06
5.32314e-05
-6.69141e-06
5.26632e-05
-9.74135e-06
5.21646e-05
-1.33085e-05
5.19838e-05
-1.71084e-05
5.22578e-05
-2.08098e-05
5.28398e-05
-2.42705e-05
5.33629e-05
-2.7715e-05
5.30298e-05
-3.09021e-05
5.07417e-05
-3.30515e-05
4.65411e-05
-3.53681e-05
4.37565e-05
-4.27337e-05
4.72775e-05
-6.06645e-05
6.2409e-05
-8.59002e-05
0.00010894
0.00018153
-0.000111615
4.69968e-07
7.6262e-05
1.06597e-06
5.21233e-05
1.37361e-06
5.62609e-05
1.31334e-06
5.8031e-05
8.05482e-07
5.74373e-05
-1.57441e-07
5.6473e-05
-1.46416e-06
5.57808e-05
-3.0148e-06
5.53347e-05
-4.85212e-06
5.50688e-05
-7.11466e-06
5.49257e-05
-9.89235e-06
5.49423e-05
-1.31327e-05
5.52242e-05
-1.66586e-05
5.57838e-05
-2.03243e-05
5.65055e-05
-2.41599e-05
5.71985e-05
-2.84646e-05
5.73345e-05
-3.34361e-05
5.57133e-05
-3.90623e-05
5.21674e-05
-4.65603e-05
5.12545e-05
-5.94764e-05
6.01935e-05
-8.04798e-05
8.34123e-05
-0.000102761
0.000131221
0.000196793
-0.000118023
4.66285e-07
7.57957e-05
6.4393e-07
5.19457e-05
6.81855e-07
5.62231e-05
5.06814e-07
5.8206e-05
2.34853e-08
5.79206e-05
-8.29417e-07
5.73258e-05
-2.00179e-06
5.69531e-05
-3.44276e-06
5.67756e-05
-5.16669e-06
5.67927e-05
-7.24778e-06
5.70069e-05
-9.74713e-06
5.74418e-05
-1.26521e-05
5.81293e-05
-1.593e-05
5.90617e-05
-1.96095e-05
6.0185e-05
-2.38451e-05
6.14342e-05
-2.9062e-05
6.25515e-05
-3.60292e-05
6.26806e-05
-4.53008e-05
6.1439e-05
-5.70215e-05
6.29752e-05
-7.26088e-05
7.57808e-05
-9.34295e-05
0.000104233
-0.000113522
0.000151313
0.000212442
-0.000129172
4.49027e-07
7.53467e-05
4.22942e-07
5.1972e-05
2.99238e-07
5.63469e-05
5.34724e-08
5.84518e-05
-4.02158e-07
5.83761e-05
-1.15021e-06
5.80738e-05
-2.17357e-06
5.79764e-05
-3.45738e-06
5.80594e-05
-5.00852e-06
5.83439e-05
-6.86119e-06
5.88596e-05
-9.05399e-06
5.96346e-05
-1.16159e-05
6.06913e-05
-1.46058e-05
6.20516e-05
-1.81546e-05
6.37338e-05
-2.2474e-05
6.57537e-05
-2.80072e-05
6.80847e-05
-3.57581e-05
7.04315e-05
-4.67156e-05
7.23965e-05
-6.03513e-05
7.66109e-05
-7.5939e-05
9.13685e-05
-9.43871e-05
0.000122681
-0.000113182
0.000170108
0.000228523
-0.000129262
4.18127e-07
7.49287e-05
3.13134e-07
5.20771e-05
1.14059e-07
5.6546e-05
-1.51418e-07
5.87172e-05
-5.61209e-07
5.87857e-05
-1.19214e-06
5.87046e-05
-2.04608e-06
5.88302e-05
-3.12645e-06
5.91398e-05
-4.4397e-06
5.96571e-05
-6.004e-06
6.04239e-05
-7.84899e-06
6.14797e-05
-1.00224e-05
6.28647e-05
-1.26089e-05
6.46381e-05
-1.57535e-05
6.68784e-05
-1.96712e-05
6.96713e-05
-2.47255e-05
7.31389e-05
-3.1743e-05
7.74491e-05
-4.19281e-05
8.25817e-05
-5.50373e-05
8.97202e-05
-6.88798e-05
0.000105211
-8.3171e-05
0.000136972
-9.90967e-05
0.000186033
0.000244968
-0.000115542
3.93976e-07
7.45348e-05
2.6553e-07
5.22056e-05
5.45489e-08
5.67569e-05
-1.80215e-07
5.89518e-05
-5.18003e-07
5.91234e-05
-1.02071e-06
5.92072e-05
-1.69298e-06
5.95024e-05
-2.54333e-06
5.99901e-05
-3.57896e-06
6.06927e-05
-4.81277e-06
6.16578e-05
-6.26839e-06
6.29354e-05
-7.98819e-06
6.45845e-05
-1.00391e-05
6.66889e-05
-1.25263e-05
6.93654e-05
-1.56142e-05
7.27591e-05
-1.9545e-05
7.70696e-05
-2.47673e-05
8.26715e-05
-3.22119e-05
9.00263e-05
-4.22619e-05
9.97703e-05
-5.24488e-05
0.000115398
-5.99229e-05
0.000144446
-6.55286e-05
0.000191639
0.000250875
-7.14349e-05
3.88227e-07
7.41467e-05
2.71085e-07
5.23228e-05
9.17268e-08
5.69361e-05
-8.02521e-08
5.91237e-05
-3.23242e-07
5.93663e-05
-6.86307e-07
5.95702e-05
-1.1714e-06
5.99875e-05
-1.78238e-06
6.0601e-05
-2.52497e-06
6.14352e-05
-3.40644e-06
6.25391e-05
-4.43945e-06
6.39683e-05
-5.64609e-06
6.5791e-05
-7.05827e-06
6.81009e-05
-8.72157e-06
7.10286e-05
-1.07103e-05
7.47478e-05
-1.3125e-05
7.94843e-05
-1.60686e-05
8.56152e-05
-1.98207e-05
9.37786e-05
-2.47732e-05
0.000104723
-2.9281e-05
0.000119906
-2.85114e-05
0.000143677
-1.81557e-05
0.000181283
0.000231424
1.29485e-06
4.00254e-07
7.37464e-05
3.13248e-07
5.24097e-05
1.99038e-07
5.70502e-05
1.13706e-07
5.92089e-05
-1.8893e-08
5.94988e-05
-2.32481e-07
5.97837e-05
-5.27039e-07
6.0282e-05
-8.98341e-07
6.09721e-05
-1.34646e-06
6.18833e-05
-1.86866e-06
6.30613e-05
-2.46257e-06
6.45621e-05
-3.12534e-06
6.64536e-05
-3.84991e-06
6.88253e-05
-4.6229e-06
7.18015e-05
-5.42278e-06
7.55476e-05
-6.20861e-06
8.02702e-05
-6.85523e-06
8.62618e-05
-7.06139e-06
9.39847e-05
-6.53385e-06
0.000104195
-4.19186e-06
0.000117564
4.28396e-06
0.000135201
2.5401e-05
0.000160167
0.000191245
6.558e-05
4.26799e-07
7.33196e-05
3.8581e-07
5.24507e-05
3.56276e-07
5.70797e-05
3.70572e-07
5.91946e-05
3.59876e-07
5.95096e-05
3.01042e-07
5.98425e-05
1.98804e-07
6.03842e-05
6.24551e-08
6.11084e-05
-9.84049e-08
6.20441e-05
-2.69799e-07
6.32326e-05
-4.32187e-07
6.47243e-05
-5.60263e-07
6.65815e-05
-6.11994e-07
6.8877e-05
-5.25194e-07
7.17146e-05
-2.01512e-07
7.52238e-05
5.22523e-07
7.95462e-05
1.90475e-06
8.48795e-05
4.36759e-06
9.15218e-05
8.75111e-06
9.98117e-05
1.61683e-05
0.000110147
2.90327e-05
0.000122336
5.31074e-05
0.000136092
0.000150066
9.42869e-05
4.669e-07
7.28527e-05
4.80988e-07
5.24366e-05
5.44383e-07
5.70164e-05
6.65238e-07
5.90738e-05
7.79735e-07
5.93952e-05
8.74856e-07
5.97475e-05
9.62746e-07
6.02963e-05
1.05046e-06
6.10206e-05
1.16257e-06
6.1932e-05
1.32058e-06
6.30746e-05
1.56048e-06
6.44843e-05
1.92275e-06
6.62191e-05
2.46897e-06
6.83306e-05
3.29498e-06
7.08885e-05
4.53643e-06
7.39823e-05
6.37993e-06
7.77026e-05
9.12731e-06
8.2132e-05
1.32902e-05
8.73588e-05
1.96612e-05
9.34408e-05
2.94084e-05
0.000100399
4.39038e-05
0.000107841
6.54403e-05
0.000114556
0.000118701
9.68049e-05
5.18299e-07
7.23344e-05
5.88247e-07
5.23667e-05
7.47955e-07
5.68568e-05
9.7492e-07
5.88469e-05
1.21302e-06
5.91572e-05
1.45387e-06
5.95067e-05
1.71342e-06
6.00367e-05
2.01098e-06
6.07232e-05
2.37094e-06
6.15722e-05
2.82514e-06
6.26205e-05
3.40772e-06
6.39017e-05
4.1801e-06
6.54467e-05
5.22013e-06
6.72905e-05
6.62454e-06
6.9484e-05
8.5446e-06
7.20622e-05
1.11771e-05
7.507e-05
1.48107e-05
7.84983e-05
1.98478e-05
8.23217e-05
2.68662e-05
8.64224e-05
3.66864e-05
9.05792e-05
5.0182e-05
9.43457e-05
6.81191e-05
9.66185e-05
9.5792e-05
9.10285e-05
5.78316e-07
7.17562e-05
7.01463e-07
5.22437e-05
9.54324e-07
5.6604e-05
1.28578e-06
5.85156e-05
1.63713e-06
5.88059e-05
2.01099e-06
5.9133e-05
2.42895e-06
5.96189e-05
2.91257e-06
6.02397e-05
3.48386e-06
6.1001e-05
4.18356e-06
6.19209e-05
5.05758e-06
6.30276e-05
6.16446e-06
6.43397e-05
7.57364e-06
6.58812e-05
9.39902e-06
6.76585e-05
1.17726e-05
6.96885e-05
1.48776e-05
7.19649e-05
1.89375e-05
7.44384e-05
2.42535e-05
7.70056e-05
3.11888e-05
7.94871e-05
4.01971e-05
8.1571e-05
5.17483e-05
8.27944e-05
6.60356e-05
8.23312e-05
7.91164e-05
8.27112e-05
6.42398e-07
7.11138e-05
8.17906e-07
5.20682e-05
1.15902e-06
5.62629e-05
1.58174e-06
5.8093e-05
2.03536e-06
5.83524e-05
2.52918e-06
5.86393e-05
3.08091e-06
5.90674e-05
3.7177e-06
5.96031e-05
4.46883e-06
6.02501e-05
5.36935e-06
6.10203e-05
6.46506e-06
6.19318e-05
7.81512e-06
6.29896e-05
9.49466e-06
6.42017e-05
1.15913e-05
6.55619e-05
1.42256e-05
6.70542e-05
1.75434e-05
6.86472e-05
2.17131e-05
7.02686e-05
2.6939e-05
7.17798e-05
3.34301e-05
7.2996e-05
4.13877e-05
7.36133e-05
5.09517e-05
7.32303e-05
6.20156e-05
7.12673e-05
6.70932e-05
7.40388e-05
7.07364e-07
7.04064e-05
9.32538e-07
5.18429e-05
1.35377e-06
5.58416e-05
1.85472e-06
5.75921e-05
2.39669e-06
5.78106e-05
2.98888e-06
5.80473e-05
3.65254e-06
5.84039e-05
4.41397e-06
5.88418e-05
5.30378e-06
5.93604e-05
6.3543e-06
5.99698e-05
7.61269e-06
6.06733e-05
9.13125e-06
6.14709e-05
1.09754e-05
6.23575e-05
1.3222e-05
6.33153e-05
1.59624e-05
6.43138e-05
1.93115e-05
6.52981e-05
2.33874e-05
6.61926e-05
2.83082e-05
6.68591e-05
3.41859e-05
6.71182e-05
4.10777e-05
6.67215e-05
4.89468e-05
6.53611e-05
5.75639e-05
6.26502e-05
5.82286e-05
6.64285e-05
7.72014e-07
6.96344e-05
1.04284e-06
5.15721e-05
1.536e-06
5.53485e-05
2.10276e-06
5.70255e-05
2.71591e-06
5.71976e-05
3.38649e-06
5.73768e-05
4.13741e-06
5.76531e-05
4.99383e-06
5.79854e-05
5.98061e-06
5.83736e-05
7.1356e-06
5.88146e-05
8.49784e-06
5.93109e-05
1.01132e-05
5.98555e-05
1.20373e-05
6.04334e-05
1.43325e-05
6.10202e-05
1.70708e-05
6.15755e-05
2.03286e-05
6.20402e-05
2.41842e-05
6.23369e-05
2.86991e-05
6.23442e-05
3.39171e-05
6.19001e-05
3.98256e-05
6.08128e-05
4.63253e-05
5.88615e-05
5.31716e-05
5.58039e-05
5.1446e-05
5.99542e-05
8.36902e-07
6.87974e-05
1.14469e-06
5.12643e-05
1.70019e-06
5.4793e-05
2.31838e-06
5.64074e-05
2.9892e-06
5.65268e-05
3.71944e-06
5.66467e-05
4.53363e-06
5.68389e-05
5.45336e-06
5.70658e-05
6.50718e-06
5.73197e-05
7.72173e-06
5.76e-05
9.13641e-06
5.78962e-05
1.07895e-05
5.82024e-05
1.27268e-05
5.84961e-05
1.49959e-05
5.8751e-05
1.76487e-05
5.89226e-05
2.07354e-05
5.89534e-05
2.43039e-05
5.87683e-05
2.83796e-05
5.82684e-05
3.29592e-05
5.73204e-05
3.8002e-05
5.57701e-05
4.33954e-05
5.34681e-05
4.89268e-05
5.02726e-05
4.61003e-05
5.42724e-05
9.06142e-07
6.78913e-05
1.23359e-06
5.0937e-05
1.84052e-06
5.41862e-05
2.49894e-06
5.5749e-05
3.21366e-06
5.58121e-05
3.98597e-06
5.58743e-05
4.84229e-06
5.59825e-05
5.80128e-06
5.61069e-05
6.88795e-06
5.6233e-05
8.12948e-06
5.63583e-05
9.5547e-06
5.64709e-05
1.11983e-05
5.65587e-05
1.30952e-05
5.65991e-05
1.52826e-05
5.65635e-05
1.7796e-05
5.64091e-05
2.06665e-05
5.60829e-05
2.39175e-05
5.55174e-05
2.75515e-05
5.46345e-05
3.15457e-05
5.33262e-05
3.5841e-05
5.14749e-05
4.03365e-05
4.89727e-05
4.48591e-05
4.57499e-05
4.17954e-05
4.91639e-05
9.88561e-07
6.69028e-05
1.30759e-06
5.0618e-05
1.94969e-06
5.35442e-05
2.63942e-06
5.50592e-05
3.38447e-06
5.5067e-05
4.18516e-06
5.50736e-05
5.0662e-06
5.51015e-05
6.04411e-06
5.51289e-05
7.13994e-06
5.51371e-05
8.37803e-06
5.51202e-05
9.78349e-06
5.50654e-05
1.13831e-05
5.49589e-05
1.3204e-05
5.4778e-05
1.52738e-05
5.44936e-05
1.76157e-05
5.40671e-05
2.02462e-05
5.34525e-05
2.31722e-05
5.25915e-05
2.63856e-05
5.14211e-05
2.98516e-05
4.98603e-05
3.35083e-05
4.78182e-05
3.7267e-05
4.52141e-05
4.09969e-05
4.202e-05
3.82752e-05
4.45172e-05
1.09252e-06
6.58104e-05
1.36809e-06
5.03425e-05
2.0226e-06
5.28896e-05
2.73539e-06
5.43465e-05
3.49926e-06
5.43031e-05
4.31326e-06
5.42596e-05
5.20304e-06
5.42118e-05
6.18292e-06
5.41491e-05
7.27079e-06
5.40491e-05
8.48765e-06
5.39033e-05
9.85213e-06
5.37007e-05
1.13867e-05
5.34242e-05
1.31112e-05
5.30534e-05
1.50446e-05
5.25602e-05
1.72002e-05
5.19115e-05
1.95867e-05
5.10661e-05
2.22008e-05
4.99774e-05
2.50276e-05
4.85943e-05
2.80286e-05
4.68593e-05
3.11445e-05
4.47023e-05
3.42983e-05
4.20603e-05
3.73944e-05
3.8924e-05
3.53623e-05
4.03074e-05
1.21337e-06
6.4597e-05
1.42073e-06
5.01352e-05
2.059e-06
5.22513e-05
2.78149e-06
5.3624e-05
3.5481e-06
5.35366e-05
4.362e-06
5.34458e-05
5.24539e-06
5.33285e-05
6.21218e-06
5.31822e-05
7.27813e-06
5.29831e-05
8.45955e-06
5.27218e-05
9.77173e-06
5.23885e-05
1.12309e-05
5.1965e-05
1.28511e-05
5.14333e-05
1.46445e-05
5.07668e-05
1.66186e-05
4.99374e-05
1.87749e-05
4.89098e-05
2.11055e-05
4.76466e-05
2.35915e-05
4.61082e-05
2.61989e-05
4.4252e-05
2.88721e-05
4.20292e-05
3.15435e-05
3.93889e-05
3.41437e-05
3.63239e-05
3.29115e-05
3.65945e-05
1.33372e-06
6.32633e-05
1.46818e-06
5.00006e-05
2.05984e-06
5.16596e-05
2.77083e-06
5.29129e-05
3.52168e-06
5.27858e-05
4.31496e-06
5.26526e-05
5.17604e-06
5.24674e-05
6.11412e-06
5.2244e-05
7.14325e-06
5.1954e-05
8.277e-06
5.15882e-05
9.52691e-06
5.11386e-05
1.09036e-05
5.05883e-05
1.24177e-05
4.99191e-05
1.40759e-05
4.91086e-05
1.58816e-05
4.81316e-05
1.78322e-05
4.69592e-05
1.99171e-05
4.55616e-05
2.21187e-05
4.39067e-05
2.44071e-05
4.19636e-05
2.67368e-05
3.96995e-05
2.90507e-05
3.7075e-05
3.12943e-05
3.40802e-05
3.07787e-05
3.34271e-05
1.43834e-06
6.18249e-05
1.5025e-06
4.99365e-05
2.0198e-06
5.11423e-05
2.69378e-06
5.22389e-05
3.40534e-06
5.20743e-05
4.15801e-06
5.18999e-05
4.97354e-06
5.16518e-05
5.86202e-06
5.13555e-05
6.83571e-06
5.09804e-05
7.90411e-06
5.052e-05
9.07588e-06
4.99669e-05
1.03595e-05
4.93047e-05
1.17619e-05
4.85167e-05
1.32856e-05
4.75848e-05
1.49324e-05
4.64848e-05
1.66977e-05
4.51938e-05
1.85717e-05
4.36876e-05
2.05385e-05
4.19399e-05
2.25755e-05
3.99265e-05
2.46483e-05
3.76267e-05
2.67129e-05
3.50104e-05
2.87273e-05
3.20657e-05
2.88318e-05
3.06743e-05
1.52122e-06
6.03038e-05
1.51405e-06
4.99437e-05
1.93233e-06
5.0724e-05
2.54321e-06
5.16281e-05
3.19004e-06
5.14275e-05
3.87627e-06
5.12137e-05
4.6228e-06
5.09052e-05
5.4368e-06
5.05416e-05
6.32996e-06
5.00874e-05
7.30804e-06
4.9542e-05
8.37951e-06
4.88955e-05
9.54932e-06
4.81349e-05
1.0822e-05
4.72439e-05
1.22008e-05
4.62061e-05
1.36844e-05
4.50013e-05
1.52686e-05
4.36096e-05
1.69455e-05
4.20107e-05
1.87033e-05
4.0182e-05
2.0525e-05
3.81048e-05
2.23894e-05
3.57622e-05
2.42656e-05
3.31342e-05
2.61238e-05
3.02076e-05
2.69998e-05
2.7956e-05
1.57434e-06
5.87294e-05
1.49766e-06
5.00205e-05
1.79854e-06
5.04231e-05
2.32142e-06
5.11053e-05
2.87737e-06
5.08716e-05
3.47391e-06
5.06171e-05
4.12673e-06
5.02524e-05
4.84092e-06
4.98275e-05
5.62665e-06
4.93018e-05
6.48761e-06
4.86811e-05
7.43114e-06
4.7952e-05
8.46004e-06
4.7106e-05
9.57894e-06
4.61251e-05
1.07889e-05
4.49962e-05
1.20892e-05
4.3701e-05
1.34772e-05
4.22216e-05
1.49458e-05
4.05421e-05
1.64883e-05
3.86395e-05
1.8092e-05
3.65013e-05
1.97447e-05
3.41095e-05
2.14274e-05
3.14516e-05
2.31206e-05
2.85145e-05
2.53032e-05
2.48171e-05
1.58258e-06
5.71469e-05
1.44769e-06
5.01555e-05
1.62496e-06
5.02459e-05
2.04146e-06
5.06889e-05
2.4859e-06
5.04272e-05
2.97472e-06
5.01283e-05
3.51285e-06
4.97142e-05
4.10758e-06
4.92328e-05
4.76504e-06
4.86444e-05
5.4865e-06
4.79598e-05
6.27885e-06
4.71598e-05
7.14289e-06
4.6242e-05
8.08366e-06
4.51844e-05
9.10078e-06
4.39791e-05
1.01934e-05
4.26084e-05
1.13617e-05
4.10533e-05
1.25987e-05
3.93052e-05
1.39012e-05
3.73371e-05
1.52589e-05
3.51437e-05
1.66636e-05
3.27047e-05
1.81039e-05
3.00112e-05
1.95679e-05
2.70505e-05
2.38254e-05
2.10458e-05
1.53441e-06
5.56126e-05
1.35928e-06
5.03307e-05
1.41886e-06
5.01865e-05
1.72087e-06
5.03869e-05
2.04456e-06
5.01036e-05
2.41712e-06
4.97557e-05
2.83152e-06
4.92999e-05
3.29699e-06
4.87674e-05
3.81303e-06
4.81284e-05
4.3848e-06
4.73881e-05
5.0119e-06
4.65328e-05
5.70041e-06