/*--------------------------------*- C++ -*----------------------------------*\
| =========                 |                                                 |
| \\      /  F ield         | OpenFOAM: The Open Source CFD Toolbox           |
|  \\    /   O peration     | Version:  5.x                                   |
|   \\  /    A nd           | Web:      www.OpenFOAM.org                      |
|    \\/     M anipulation  |                                                 |
\*---------------------------------------------------------------------------*/
FoamFile
{
    version     2.0;
    format      ascii;
    class       volVectorField;
    location    "0.7";
    object      U;
}
// * * * * * * * * * * * * * * * * * * * * * * * * * * * * * * * * * * * * * //

dimensions      [0 1 -1 0 0 0 0];

internalField   nonuniform List<vector> 
2268
(
(-0.0201019 0.00914156 0)
(-0.0645399 0.010714 0)
(-0.100931 0.00714344 0)
(-0.121837 0.00445998 0)
(-0.136935 0.00190537 0)
(-0.136243 -0.00210089 0)
(-0.116032 -0.00635749 0)
(-0.0819171 -0.00807855 0)
(-0.0485699 -0.00633838 0)
(-0.0269363 -0.00323295 0)
(-0.0184144 4.48977e-05 0)
(-0.0225056 0.0028621 0)
(-0.0348897 0.0048304 0)
(-0.0524085 0.00628859 0)
(-0.0740084 0.00830214 0)
(-0.103076 0.00945128 0)
(-0.13722 0.00385962 0)
(-0.149724 -0.00391297 0)
(-0.164907 0.00863002 0)
(-0.251681 0.0218905 0)
(-0.310783 0.00520856 0)
(-0.229331 -0.0327934 0)
(-0.0821108 -0.0486646 0)
(-0.0327501 0.0310579 0)
(-0.0758993 0.0285255 0)
(-0.101953 0.0178749 0)
(-0.120698 0.0125489 0)
(-0.13787 0.00650713 0)
(-0.140985 -0.00550339 0)
(-0.122442 -0.019702 0)
(-0.0867999 -0.025865 0)
(-0.0504954 -0.0205454 0)
(-0.0266568 -0.0107265 0)
(-0.0175143 -0.00211789 0)
(-0.0161013 0.00439716 0)
(-0.0198941 0.00884157 0)
(-0.0270745 0.0121422 0)
(-0.0370057 0.016215 0)
(-0.0520632 0.0214605 0)
(-0.0810859 0.0228436 0)
(-0.119453 0.0189708 0)
(-0.175081 0.0336013 0)
(-0.251064 0.0399679 0)
(-0.247611 -0.00433699 0)
(-0.161441 -0.0853375 0)
(-0.0563252 -0.122172 0)
(-0.0299998 0.0537338 0)
(-0.0590142 0.0438133 0)
(-0.0836315 0.0277199 0)
(-0.108073 0.0225229 0)
(-0.132632 0.0137576 0)
(-0.139136 -0.0078044 0)
(-0.122324 -0.0339247 0)
(-0.0907916 -0.0451595 0)
(-0.0570227 -0.035974 0)
(-0.0329116 -0.0187381 0)
(-0.0232524 -0.00457518 0)
(-0.0235939 0.0047006 0)
(-0.0279827 0.0103122 0)
(-0.0323636 0.0141205 0)
(-0.0342033 0.0182919 0)
(-0.0320438 0.025322 0)
(-0.0321318 0.0332707 0)
(-0.0444838 0.0400394 0)
(-0.0722249 0.0537148 0)
(-0.108349 0.0501166 0)
(-0.118914 -0.0175207 0)
(-0.0668961 -0.112213 0)
(-0.0131887 -0.160802 0)
(-0.0209616 0.0706851 0)
(-0.0349284 0.0564948 0)
(-0.0574364 0.0380645 0)
(-0.080836 0.0337589 0)
(-0.101712 0.0218042 0)
(-0.101586 -0.00945273 0)
(-0.0863835 -0.0454491 0)
(-0.0705931 -0.059785 0)
(-0.0549545 -0.0483014 0)
(-0.0403267 -0.0258955 0)
(-0.0326787 -0.00649003 0)
(-0.0333902 0.0061125 0)
(-0.0386026 0.0127303 0)
(-0.0436567 0.01576 0)
(-0.0450021 0.0176541 0)
(-0.0400104 0.0223132 0)
(-0.0292876 0.030171 0)
(-0.011633 0.0420695 0)
(-0.000259556 0.057265 0)
(0.026999 0.0566685 0)
(0.021587 -0.0091135 0)
(0.0243053 -0.111604 0)
(0.0275278 -0.159251 0)
(-0.00865468 0.0804199 0)
(-0.00357137 0.0638204 0)
(-0.015746 0.048209 0)
(-0.0279386 0.0428736 0)
(-0.0321387 0.0257246 0)
(-0.0168527 -0.0123447 0)
(-0.00637053 -0.0483037 0)
(-0.016417 -0.0606613 0)
(-0.0333666 -0.0492525 0)
(-0.0423798 -0.0273401 0)
(-0.0438245 -0.00725587 0)
(-0.0455442 0.00760045 0)
(-0.0500045 0.0153148 0)
(-0.0540775 0.0174719 0)
(-0.0539121 0.0169056 0)
(-0.0482535 0.0183645 0)
(-0.038175 0.0219657 0)
(-0.0161177 0.0303458 0)
(0.0144666 0.0399147 0)
(0.0682561 0.0408346 0)
(0.0943696 -0.00857588 0)
(0.0746149 -0.100081 0)
(0.0550816 -0.136004 0)
(0.00550746 0.0758455 0)
(0.0326 0.0596857 0)
(0.0421441 0.045056 0)
(0.0486014 0.0377697 0)
(0.0699998 0.0162961 0)
(0.0980868 -0.0170156 0)
(0.0941336 -0.0418465 0)
(0.0531585 -0.0469654 0)
(0.00222609 -0.0355452 0)
(-0.0354832 -0.0191051 0)
(-0.0529356 -0.00371591 0)
(-0.0586809 0.00937916 0)
(-0.0627285 0.0164154 0)
(-0.065118 0.0170507 0)
(-0.0620404 0.0142795 0)
(-0.0534373 0.0139582 0)
(-0.0424647 0.0150095 0)
(-0.0250007 0.0182434 0)
(0.00150324 0.0176302 0)
(0.0465169 0.013023 0)
(0.0936694 -0.0159571 0)
(0.074197 -0.087181 0)
(0.0674672 -0.112091 0)
(0.0158824 0.0655235 0)
(0.0610525 0.0588912 0)
(0.106713 0.0473256 0)
(0.152375 0.0351809 0)
(0.196138 0.0110935 0)
(0.20969 -0.0130332 0)
(0.170746 -0.0240814 0)
(0.0984542 -0.0221068 0)
(0.0283855 -0.0113173 0)
(-0.0246923 -0.00329438 0)
(-0.0564999 0.00304781 0)
(-0.0703137 0.0130361 0)
(-0.0763054 0.0193755 0)
(-0.0772905 0.0186246 0)
(-0.0705653 0.0123769 0)
(-0.0577865 0.00914594 0)
(-0.0440048 0.00799468 0)
(-0.0275325 0.00818319 0)
(-0.00675119 0.00262261 0)
(0.0178462 -0.00914004 0)
(0.0609812 -0.0284139 0)
(0.0500839 -0.0807876 0)
(0.0657194 -0.0860911 0)
(0.0264695 0.028769 0)
(0.121207 0.00769573 0)
(0.194559 -0.00780886 0)
(0.238432 -0.0125289 0)
(0.250721 -0.0131916 0)
(0.221579 -0.00578968 0)
(0.152147 0.00824649 0)
(0.0756807 0.0170189 0)
(0.0177639 0.0241534 0)
(-0.0232122 0.0237701 0)
(-0.051485 0.0184562 0)
(-0.0708071 0.018688 0)
(-0.0841462 0.0177878 0)
(-0.088723 0.0121241 0)
(-0.0809989 0.00329723 0)
(-0.0645111 0.00092712 0)
(-0.0474971 0.00174848 0)
(-0.0297355 0.00206536 0)
(-0.00984683 -0.00402805 0)
(0.008002 -0.0186302 0)
(0.0316201 -0.034688 0)
(0.0304055 -0.0766113 0)
(0.0521059 -0.0488596 0)
(-0.225532 0.0689591 0)
(-0.524569 0.0560232 0)
(-0.609988 -0.0145233 0)
(-0.476488 -0.0454283 0)
(-0.340681 -0.04363 0)
(-0.204556 -0.0457185 0)
(0.0227354 -0.0953903 0)
(0.310196 -0.0795132 0)
(0.222687 0.032427 0)
(-0.528463 0.200485 0)
(-1.18463 0.172307 0)
(-1.48615 0.0743079 0)
(-1.50845 0.0107262 0)
(-1.41537 -0.0128956 0)
(-1.28935 -0.0199241 0)
(-1.09488 -0.0344368 0)
(-0.795994 -0.0725432 0)
(-0.381912 -0.112623 0)
(0.0943216 -0.00277178 0)
(-0.378271 0.21802 0)
(-0.522841 0.144651 0)
(-0.419907 -0.0260884 0)
(-0.325389 -0.08508 0)
(-0.191931 -0.0961414 0)
(-0.118381 -0.109625 0)
(0.116695 -0.202428 0)
(0.162628 0.0216617 0)
(-0.523069 0.342284 0)
(-1.43373 0.406625 0)
(-1.8168 0.200256 0)
(-1.77906 0.0193385 0)
(-1.69686 -0.0617031 0)
(-1.61868 -0.0952792 0)
(-1.48681 -0.113278 0)
(-1.30467 -0.144934 0)
(-1.02036 -0.22423 0)
(-0.597381 -0.299561 0)
(-0.11147 -0.0902535 0)
(-0.371986 0.354686 0)
(-0.300456 0.166616 0)
(-0.240714 -0.0950682 0)
(-0.141776 -0.14513 0)
(-0.0233435 -0.134618 0)
(-0.0399225 -0.15008 0)
(0.0404651 -0.198657 0)
(-0.333881 0.286649 0)
(-1.20927 0.632885 0)
(-1.87091 0.568148 0)
(-1.97648 0.260853 0)
(-1.99899 0.0323972 0)
(-1.98907 -0.0807565 0)
(-1.91887 -0.146746 0)
(-1.8134 -0.211883 0)
(-1.6124 -0.2993 0)
(-1.24004 -0.447977 0)
(-0.710509 -0.558482 0)
(-0.216707 -0.276622 0)
(-0.315211 0.450993 0)
(-0.0320058 0.160061 0)
(-0.026593 -0.108129 0)
(0.0614411 -0.184001 0)
(0.126677 -0.14037 0)
(0.0119757 -0.121596 0)
(-0.10293 -0.0687518 0)
(-0.719154 0.562799 0)
(-1.5374 0.906186 0)
(-1.90847 0.737273 0)
(-1.75725 0.359963 0)
(-1.73204 0.0583246 0)
(-1.45686 -0.0849466 0)
(-1.37427 -0.137019 0)
(-1.62832 -0.21589 0)
(-1.80816 -0.370035 0)
(-1.45828 -0.608818 0)
(-0.71636 -0.878199 0)
(-0.186045 -0.488498 0)
(-0.232949 0.510327 0)
(0.164662 0.0898437 0)
(0.205179 -0.144367 0)
(0.274958 -0.203645 0)
(0.289284 -0.117051 0)
(0.0625433 -0.0289194 0)
(-0.221314 0.133333 0)
(-0.977917 0.859783 0)
(-1.63938 1.14146 0)
(-1.66858 0.768542 0)
(-1.35536 0.394531 0)
(-1.18587 0.00207508 0)
(-0.661222 -0.204535 0)
(-0.0774142 -0.0953657 0)
(-0.120483 -0.00949083 0)
(-1.02285 -0.233035 0)
(-1.28636 -0.682788 0)
(-0.623821 -1.18561 0)
(-0.0888144 -0.693444 0)
(-0.101688 0.485236 0)
(0.302719 0.0540057 0)
(0.404328 -0.183587 0)
(0.475464 -0.215928 0)
(0.45929 -0.0648699 0)
(0.150441 0.115721 0)
(-0.218262 0.345446 0)
(-1.0194 1.10291 0)
(-1.41402 1.24361 0)
(-1.215 0.701738 0)
(-0.906568 0.303317 0)
(-0.822291 -0.22229 0)
(-0.0813808 -0.534276 0)
(0.677685 -0.508711 0)
(1.75432 0.0941595 0)
(1.34424 0.363075 0)
(-0.380356 -0.55203 0)
(-0.494908 -1.39985 0)
(0.0118435 -0.878983 0)
(0.18066 0.333715 0)
(0.412968 0.0142785 0)
(0.540865 -0.232402 0)
(0.614661 -0.251852 0)
(0.585577 0.0177996 0)
(0.260195 0.298772 0)
(-0.115918 0.551176 0)
(-0.895511 1.28525 0)
(-0.924595 1.24541 0)
(-0.652138 0.657839 0)
(-0.715946 0.220716 0)
(-0.538686 -0.400714 0)
(0.245698 -0.880559 0)
(0.775656 -0.930962 0)
(1.44828 -0.438992 0)
(2.51072 0.519562 0)
(1.71888 0.775949 0)
(-0.3298 -1.3565 0)
(0.0810772 -1.02735 0)
(0.162767 0.165293 0)
(0.447118 -0.062152 0)
(0.588764 -0.30043 0)
(0.595444 -0.292496 0)
(0.554368 -0.00985243 0)
(0.306073 0.378488 0)
(0.0420577 0.708532 0)
(-0.709695 1.37641 0)
(-0.226416 1.2981 0)
(-0.354072 0.730376 0)
(-0.706055 0.0752613 0)
(-0.128122 -0.660429 0)
(0.437381 -1.16005 0)
(0.808265 -1.18164 0)
(1.17309 -0.788853 0)
(1.86969 0.0573364 0)
(3.01705 1.0746 0)
(-0.0525495 -0.734615 0)
(0.112789 -1.10044 0)
(0.0251476 -0.0291024 0)
(0.00106592 -0.0415122 0)
(-0.0368182 -0.00561743 0)
(-0.069489 0.0243348 0)
(-0.0742751 0.0407041 0)
(-0.0712588 0.0512117 0)
(-0.0761125 0.0468828 0)
(-0.0767415 0.0365395 0)
(-0.072121 0.0313968 0)
(-0.0661095 0.0264653 0)
(-0.0617273 0.0245391 0)
(-0.0659391 0.0336696 0)
(-0.0786931 0.0372655 0)
(-0.087596 0.0248777 0)
(-0.0760539 -0.000786289 0)
(-0.0567584 -0.0113615 0)
(-0.0429597 -0.0163294 0)
(-0.0303815 -0.0181084 0)
(-0.0151948 -0.0229274 0)
(0.00262951 -0.0345116 0)
(0.0179734 -0.0487887 0)
(0.0311646 -0.0861924 0)
(0.0476931 -0.0754712 0)
(-0.685458 0.10292 0)
(-0.661592 0.0896298 0)
(-0.580544 0.046027 0)
(-0.497266 -0.000382581 0)
(-0.4552 -0.0221328 0)
(-0.445929 -0.0101082 0)
(-0.441911 0.0119701 0)
(-0.406821 0.0187105 0)
(-0.348599 0.0175206 0)
(-0.286696 0.0157298 0)
(-0.213021 0.0208123 0)
(-0.142563 0.0300456 0)
(-0.104073 0.0317311 0)
(-0.0735815 0.00976252 0)
(-0.0401546 -0.0239873 0)
(-0.0209686 -0.0276552 0)
(-0.0141017 -0.0198832 0)
(-0.00731275 -0.0177159 0)
(0.0112407 -0.027049 0)
(0.0203186 -0.0383546 0)
(0.0237801 -0.0587745 0)
(0.026496 -0.0937846 0)
(0.0485468 -0.118896 0)
(-0.445463 0.798857 0)
(-0.363082 0.0928691 0)
(-0.666471 -0.136464 0)
(-0.896969 -0.0528122 0)
(-1.04147 0.00617609 0)
(-1.11973 0.0231242 0)
(-1.11356 0.00735653 0)
(-1.08736 -0.0566577 0)
(-1.05276 -0.121398 0)
(-0.934361 -0.140523 0)
(-0.713922 -0.120933 0)
(-0.512287 -0.0659296 0)
(-0.389202 -0.0374404 0)
(-0.347836 -0.0422453 0)
(-0.302 -0.0434579 0)
(-0.21335 -0.0306339 0)
(-0.14889 -0.0264237 0)
(-0.116183 -0.0359075 0)
(-0.0955402 -0.0464101 0)
(-0.0602049 -0.0403963 0)
(-0.0428832 -0.0373221 0)
(-0.0475211 -0.0807141 0)
(-0.033408 -0.129216 0)
(-0.159973 1.13925 0)
(-0.12647 0.433681 0)
(-0.400436 0.286157 0)
(-0.566316 0.219271 0)
(-0.604764 0.127002 0)
(-0.601232 0.0514305 0)
(-0.549382 -0.0043123 0)
(-0.536366 -0.0445408 0)
(-0.60122 -0.0877943 0)
(-0.722479 -0.179927 0)
(-0.89742 -0.349929 0)
(-1.08293 -0.252668 0)
(-1.21388 -0.0942794 0)
(-1.33984 -0.0592495 0)
(-1.48747 -0.110984 0)
(-1.58207 -0.157577 0)
(-1.543 -0.160535 0)
(-1.37503 -0.16577 0)
(-1.15249 -0.179368 0)
(-0.944014 -0.16076 0)
(-0.715655 -0.14733 0)
(-0.621259 -0.158868 0)
(-0.542504 -0.155348 0)
(0.0978691 1.07299 0)
(0.127886 0.705382 0)
(-0.0526055 0.371882 0)
(-0.12042 0.222856 0)
(-0.08054 0.120408 0)
(-0.10226 0.046992 0)
(-0.090918 -0.0413588 0)
(-0.0879438 -0.0621842 0)
(-0.0979537 0.0120766 0)
(-0.117734 0.130249 0)
(-0.263285 0.146603 0)
(-0.434956 0.102761 0)
(-0.550678 0.146069 0)
(-0.662312 0.171247 0)
(-0.813556 0.100194 0)
(-1.0165 -0.0364207 0)
(-1.24666 -0.174565 0)
(-1.42947 -0.279088 0)
(-1.37362 -0.261029 0)
(-1.26502 -0.173867 0)
(-1.18719 -0.135175 0)
(-1.16481 -0.235548 0)
(-1.10769 -0.441177 0)
(0.169534 0.758128 0)
(0.266867 0.729653 0)
(0.210464 0.444605 0)
(0.170735 0.231684 0)
(0.162911 0.11687 0)
(0.116524 0.0714739 0)
(0.0553193 0.0132696 0)
(-0.0467208 -0.025607 0)
(-0.148664 -0.036061 0)
(-0.172368 -0.00765846 0)
(-0.169281 0.0642786 0)
(-0.220693 0.108902 0)
(-0.269535 0.169276 0)
(-0.283845 0.239304 0)
(-0.32678 0.297915 0)
(-0.4467 0.297244 0)
(-0.642674 0.163836 0)
(-0.873141 -0.140836 0)
(-1.06484 -0.452736 0)
(-1.22193 -0.436775 0)
(-1.30729 -0.336665 0)
(-1.19507 -0.344636 0)
(-1.07982 -0.395829 0)
(0.0716618 0.528707 0)
(0.230815 0.626382 0)
(0.274006 0.449201 0)
(0.263682 0.270768 0)
(0.210385 0.167141 0)
(0.147094 0.133526 0)
(0.0872492 0.106537 0)
(0.00306611 0.0962595 0)
(-0.0819116 0.105976 0)
(-0.156668 0.123628 0)
(-0.195187 0.155041 0)
(-0.219243 0.183619 0)
(-0.241256 0.192099 0)
(-0.237469 0.205491 0)
(-0.209157 0.253433 0)
(-0.183148 0.297541 0)
(-0.182184 0.273133 0)
(-0.234522 0.177417 0)
(-0.372411 0.0631799 0)
(-0.511853 -0.100961 0)
(-0.690697 -0.259955 0)
(-0.892566 -0.441453 0)
(-0.936904 -0.504969 0)
(-0.0144119 0.459691 0)
(0.12595 0.498684 0)
(0.206273 0.403649 0)
(0.217625 0.293186 0)
(0.164746 0.220166 0)
(0.110815 0.192867 0)
(0.0626357 0.173429 0)
(-0.00358297 0.159267 0)
(-0.0677791 0.145245 0)
(-0.122531 0.13671 0)
(-0.158143 0.157494 0)
(-0.174832 0.18836 0)
(-0.180554 0.203695 0)
(-0.184612 0.209902 0)
(-0.180629 0.232687 0)
(-0.153555 0.247729 0)
(-0.124935 0.218556 0)
(-0.13766 0.128463 0)
(-0.211871 0.0146218 0)
(-0.326086 -0.0104046 0)
(-0.436854 0.0819249 0)
(-0.651712 -0.0321886 0)
(-0.90796 -0.466941 0)
(-0.0247552 0.440938 0)
(0.0562639 0.398173 0)
(0.120869 0.361129 0)
(0.135788 0.306956 0)
(0.10463 0.261768 0)
(0.0715767 0.237052 0)
(0.0378572 0.220793 0)
(-0.00396417 0.209588 0)
(-0.0450074 0.197509 0)
(-0.0854182 0.188159 0)
(-0.120148 0.189471 0)
(-0.13729 0.19613 0)
(-0.140253 0.201838 0)
(-0.145888 0.209146 0)
(-0.154342 0.226039 0)
(-0.152437 0.23104 0)
(-0.146919 0.20929 0)
(-0.157514 0.170593 0)
(-0.210567 0.133993 0)
(-0.310013 0.0958975 0)
(-0.361633 0.0788757 0)
(-0.385742 0.0673527 0)
(-0.666872 -0.1783 0)
(-0.010272 0.429892 0)
(0.0291532 0.342116 0)
(0.0657268 0.33536 0)
(0.0768836 0.314241 0)
(0.0630541 0.286659 0)
(0.0455614 0.264952 0)
(0.02471 0.251922 0)
(0.00119305 0.244383 0)
(-0.0244571 0.235863 0)
(-0.0540482 0.22611 0)
(-0.0825427 0.217604 0)
(-0.102134 0.212214 0)
(-0.11484 0.211684 0)
(-0.128463 0.218328 0)
(-0.14165 0.230293 0)
(-0.149464 0.232043 0)
(-0.157563 0.219775 0)
(-0.174314 0.208051 0)
(-0.210152 0.202132 0)
(-0.267487 0.173114 0)
(-0.296312 0.121185 0)
(-0.29384 0.15175 0)
(-0.476982 0.194034 0)
(-0.00324553 0.423042 0)
(0.0174098 0.313032 0)
(0.0368706 0.320614 0)
(0.0445929 0.31499 0)
(0.0387203 0.297361 0)
(0.0292351 0.280346 0)
(0.0160792 0.269828 0)
(0.00157702 0.26345 0)
(-0.0152728 0.25622 0)
(-0.0349451 0.246768 0)
(-0.0552046 0.237067 0)
(-0.0749219 0.230177 0)
(-0.0946575 0.229317 0)
(-0.11495 0.235349 0)
(-0.132733 0.244157 0)
(-0.146036 0.24444 0)
(-0.159342 0.235268 0)
(-0.175012 0.228528 0)
(-0.187295 0.225279 0)
(-0.194346 0.200347 0)
(-0.208315 0.149594 0)
(-0.270606 0.241912 0)
(-0.42693 0.477495 0)
(-0.00205922 0.418517 0)
(0.0107732 0.296571 0)
(0.0210999 0.311706 0)
(0.0264506 0.313472 0)
(0.0234259 0.302022 0)
(0.0175552 0.289469 0)
(0.00810459 0.280975 0)
(-0.00225753 0.275558 0)
(-0.0139669 0.270251 0)
(-0.0277345 0.26344 0)
(-0.0440005 0.25611 0)
(-0.063256 0.25092 0)
(-0.0846202 0.250568 0)
(-0.106365 0.254895 0)
(-0.125614 0.260272 0)
(-0.141658 0.259095 0)
(-0.157419 0.249137 0)
(-0.170775 0.235945 0)
(-0.170404 0.22232 0)
(-0.160576 0.202325 0)
(-0.198128 0.193076 0)
(-0.311039 0.37429 0)
(-0.449555 0.736637 0)
(-0.0011825 0.415328 0)
(0.00698576 0.286994 0)
(0.0118531 0.306476 0)
(0.0152323 0.312626 0)
(0.0129999 0.305422 0)
(0.00870285 0.296325 0)
(0.00115087 0.289763 0)
(-0.00729498 0.285495 0)
(-0.0168231 0.28188 0)
(-0.0283826 0.277697 0)
(-0.0430691 0.273487 0)
(-0.0611224 0.271173 0)
(-0.0813953 0.272019 0)
(-0.102165 0.275196 0)
(-0.121518 0.278147 0)
(-0.13953 0.275863 0)
(-0.158132 0.263488 0)
(-0.174127 0.241852 0)
(-0.180214 0.222668 0)
(-0.190904 0.223941 0)
(-0.270241 0.279484 0)
(-0.407661 0.524148 0)
(-0.513062 0.933098 0)
(0.000245374 0.412745 0)
(0.00474143 0.282201 0)
(0.00646413 0.303926 0)
(0.00814917 0.312681 0)
(0.00604095 0.308413 0)
(0.0023877 0.302047 0)
(-0.00406392 0.297373 0)
(-0.0116789 0.294276 0)
(-0.0205564 0.292074 0)
(-0.0313094 0.290232 0)
(-0.0447955 0.28908 0)
(-0.0611576 0.28952 0)
(-0.0796019 0.291765 0)
(-0.0991834 0.294982 0)
(-0.119217 0.297748 0)
(-0.140395 0.296461 0)
(-0.164993 0.284292 0)
(-0.193364 0.260936 0)
(-0.224202 0.24973 0)
(-0.269745 0.285001 0)
(-0.37328 0.394132 0)
(-0.511718 0.65721 0)
(-0.591072 1.03702 0)
(0.00150343 0.410205 0)
(0.00339123 0.280428 0)
(0.00344676 0.303149 0)
(0.00379529 0.313369 0)
(0.00171133 0.311107 0)
(-0.00164528 0.306967 0)
(-0.0072668 0.304109 0)
(-0.0142432 0.302396 0)
(-0.0226287 0.301723 0)
(-0.0326881 0.302004 0)
(-0.0449332 0.303374 0)
(-0.0595184 0.306076 0)
(-0.0761578 0.310015 0)
(-0.094805 0.314697 0)
(-0.115802 0.319531 0)
(-0.14024 0.32237 0)
(-0.171384 0.317149 0)
(-0.214264 0.302483 0)
(-0.269889 0.304345 0)
(-0.338236 0.366671 0)
(-0.443106 0.509983 0)
(-0.571314 0.765642 0)
(-0.654644 1.10127 0)
(0.00218757 0.407674 0)
(0.00259479 0.280168 0)
(0.0018696 0.30347 0)
(0.00129298 0.314553 0)
(-0.000689975 0.313656 0)
(-0.00377136 0.3113 0)
(-0.00858897 0.310083 0)
(-0.0147434 0.309848 0)
(-0.0222974 0.310699 0)
(-0.0313504 0.312748 0)
(-0.0421539 0.316103 0)
(-0.0548849 0.320841 0)
(-0.069676 0.326977 0)
(-0.0870268 0.33441 0)
(-0.107816 0.343032 0)
(-0.133311 0.352194 0)
(-0.166834 0.358762 0)
(-0.215651 0.360094 0)
(-0.283301 0.375281 0)
(-0.359886 0.45196 0)
(-0.451032 0.615115 0)
(-0.562682 0.863999 0)
(-0.655473 1.17754 0)
(0.00237791 0.405309 0)
(0.00214904 0.280575 0)
(0.00111636 0.304421 0)
(7.54232e-05 0.315998 0)
(-0.00169845 0.316032 0)
(-0.00440347 0.315052 0)
(-0.00839369 0.315187 0)
(-0.0135443 0.316295 0)
(-0.0199316 0.318508 0)
(-0.0276077 0.322025 0)
(-0.0366974 0.327022 0)
(-0.0473973 0.333656 0)
(-0.0600164 0.342153 0)
(-0.0751533 0.352787 0)
(-0.0937448 0.36582 0)
(-0.117071 0.381635 0)
(-0.147603 0.400204 0)
(-0.191466 0.419897 0)
(-0.255521 0.450016 0)
(-0.329409 0.532371 0)
(-0.39945 0.706124 0)
(-0.48197 0.966506 0)
(-0.576066 1.27351 0)
(0.00233347 0.403131 0)
(0.00196092 0.281244 0)
(0.000837187 0.305605 0)
(-0.000240315 0.317409 0)
(-0.00169367 0.318088 0)
(-0.00389857 0.318143 0)
(-0.00703447 0.319327 0)
(-0.0110842 0.321531 0)
(-0.016113 0.324875 0)
(-0.0221682 0.329607 0)
(-0.0293297 0.335967 0)
(-0.0377614 0.344229 0)
(-0.0477412 0.354794 0)
(-0.0597138 0.368217 0)
(-0.074348 0.385135 0)
(-0.0926475 0.406476 0)
(-0.116084 0.434049 0)
(-0.147744 0.469226 0)
(-0.194261 0.515484 0)
(-0.252749 0.599265 0)
(-0.297735 0.767383 0)
(-0.323107 1.03701 0)
(-0.355553 1.36285 0)
(0.00224464 0.401045 0)
(0.0019756 0.281945 0)
(0.000899543 0.306711 0)
(9.02965e-05 0.318552 0)
(-0.000935005 0.319687 0)
(-0.00252968 0.320507 0)
(-0.00478864 0.322472 0)
(-0.00770257 0.325493 0)
(-0.0113073 0.329695 0)
(-0.0156332 0.335343 0)
(-0.0207306 0.342728 0)
(-0.0266753 0.352198 0)
(-0.0336059 0.364244 0)
(-0.041725 0.379564 0)
(-0.0513051 0.399065 0)
(-0.062791 0.423941 0)
(-0.076705 0.456391 0)
(-0.0934496 0.499935 0)
(-0.115226 0.558016 0)
(-0.14355 0.64196 0)
(-0.15891 0.785742 0)
(-0.123197 1.02274 0)
(-0.0345874 1.33889 0)
(0.00217232 0.398941 0)
(0.00214336 0.282527 0)
(0.00124594 0.307534 0)
(0.000879826 0.319273 0)
(0.000365806 0.320724 0)
(-0.000533183 0.322079 0)
(-0.0018891 0.324591 0)
(-0.00365911 0.328159 0)
(-0.00584264 0.332927 0)
(-0.00842371 0.339153 0)
(-0.0113981 0.347146 0)
(-0.0147376 0.357283 0)
(-0.0184168 0.370068 0)
(-0.022384 0.386207 0)
(-0.0265187 0.406664 0)
(-0.0306604 0.432666 0)
(-0.0344516 0.466069 0)
(-0.0366951 0.510157 0)
(-0.0353753 0.569558 0)
(-0.0285887 0.648889 0)
(-0.00834588 0.760727 0)
(0.0633821 0.930348 0)
(0.242282 1.16007 0)
(0.00213282 0.396727 0)
(0.00242743 0.282886 0)
(0.00179863 0.307941 0)
(0.00198444 0.319479 0)
(0.00203425 0.32113 0)
(0.00187597 0.322826 0)
(0.00143592 0.325674 0)
(0.000802788 0.329537 0)
(1.28238e-05 0.33458 0)
(-0.000873949 0.341036 0)
(-0.00177154 0.349196 0)
(-0.00255111 0.35942 0)
(-0.00304322 0.372158 0)
(-0.00298384 0.388038 0)
(-0.00194247 0.407878 0)
(0.000700155 0.432672 0)
(0.00583158 0.463766 0)
(0.0155014 0.503201 0)
(0.03326 0.554252 0)
(0.0644556 0.619942 0)
(0.116105 0.700923 0)
(0.203796 0.802529 0)
(0.38451 0.91873 0)
(0.00214208 0.394334 0)
(0.00279975 0.282965 0)
(0.00248602 0.307862 0)
(0.00328353 0.319126 0)
(0.00391596 0.320864 0)
(0.00450914 0.32274 0)
(0.00496744 0.325721 0)
(0.00543094 0.32967 0)
(0.00597376 0.334707 0)
(0.00667977 0.341062 0)
(0.00771182 0.348968 0)
(0.00927562 0.358752 0)
(0.0116561 0.370758 0)
(0.0152569 0.385464 0)
(0.0206473 0.40347 0)
(0.0287316 0.425405 0)
(0.0407839 0.452046 0)
(0.0588009 0.484362 0)
(0.0861039 0.523292 0)
(0.12794 0.57003 0)
(0.1921 0.62242 0)
(0.282186 0.674081 0)
(0.42717 0.712757 0)
(0.002213 0.391693 0)
(0.00323239 0.28274 0)
(0.00325176 0.307263 0)
(0.00467416 0.318193 0)
(0.0058781 0.319918 0)
(0.00719319 0.321839 0)
(0.00851102 0.324783 0)
(0.00999367 0.328626 0)
(0.011746 0.333419 0)
(0.013882 0.339382 0)
(0.0166193 0.3467 0)
(0.0202192 0.355622 0)
(0.0249996 0.366379 0)
(0.0314587 0.379295 0)
(0.0402197 0.394715 0)
(0.0522179 0.412979 0)
(0.0687661 0.434274 0)
(0.0915614 0.458709 0)
(0.123166 0.48592 0)
(0.16709 0.515117 0)
(0.229088 0.543822 0)
(0.310939 0.564806 0)
(0.423386 0.567533 0)
(0.00234514 0.388748 0)
(0.00369513 0.282224 0)
(0.00405988 0.30615 0)
(0.00607558 0.316687 0)
(0.00781301 0.318323 0)
(0.00980347 0.320176 0)
(0.0119 0.322945 0)
(0.0142881 0.326506 0)
(0.0170943 0.330882 0)
(0.0204766 0.336232 0)
(0.0246501 0.342719 0)
(0.0298913 0.35048 0)
(0.0365598 0.359665 0)
(0.0451535 0.370438 0)
(0.0562786 0.382921 0)
(0.0707582 0.397218 0)
(0.089738 0.413114 0)
(0.114556 0.430219 0)
(0.14696 0.447616 0)
(0.189014 0.463614 0)
(0.243773 0.4756 0)
(0.312078 0.478331 0)
(0.397478 0.464702 0)
(0.00252265 0.385466 0)
(0.00416539 0.281429 0)
(0.00487794 0.30455 0)
(0.00743285 0.314651 0)
(0.00965153 0.316148 0)
(0.0122386 0.317827 0)
(0.0150071 0.320314 0)
(0.0181803 0.32346 0)
(0.0218656 0.327286 0)
(0.0262597 0.331871 0)
(0.0315747 0.337348 0)
(0.0380794 0.343773 0)
(0.0461193 0.351235 0)
(0.0561499 0.359724 0)
(0.0687356 0.36923 0)
(0.0845248 0.379648 0)
(0.104414 0.390605 0)
(0.129394 0.40142 0)
(0.16054 0.411037 0)
(0.198961 0.417708 0)
(0.245874 0.418989 0)
(0.300846 0.411114 0)
(0.364287 0.389638 0)
(0.00272292 0.381833 0)
(0.00463027 0.280359 0)
(0.00568175 0.302497 0)
(0.00871017 0.312155 0)
(0.0113356 0.313457 0)
(0.0144311 0.314883 0)
(0.0177588 0.317014 0)
(0.0215708 0.319658 0)
(0.0259525 0.322823 0)
(0.0311181 0.326561 0)
(0.0372754 0.330936 0)
(0.0446747 0.335955 0)
(0.0536159 0.341633 0)
(0.0644884 0.347881 0)
(0.0777846 0.354575 0)
(0.094002 0.361462 0)
(0.113763 0.368141 0)
(0.137752 0.373813 0)
(0.166569 0.37748 0)
(0.20069 0.377621 0)
(0.240381 0.372287 0)
(0.284592 0.358864 0)
(0.332365 0.334761 0)
(0.00292506 0.377846 0)
(0.00508982 0.279025 0)
(0.00644739 0.30003 0)
(0.00988129 0.309268 0)
(0.0128278 0.31033 0)
(0.0163471 0.311458 0)
(0.0201187 0.313176 0)
(0.0244085 0.315264 0)
(0.0293113 0.317718 0)
(0.0350272 0.320566 0)
(0.0417411 0.323814 0)
(0.0496842 0.327441 0)
(0.0591191 0.331384 0)
(0.0703599 0.335533 0)
(0.0837886 0.339683 0)
(0.0997909 0.343514 0)
(0.118755 0.346609 0)
(0.141125 0.348234 0)
(0.167178 0.347478 0)
(0.196994 0.343131 0)
(0.230416 0.333776 0)
(0.266335 0.317731 0)
(0.303423 0.29359 0)
(0.00312138 0.373518 0)
(0.00554777 0.277453 0)
(0.00713432 0.297198 0)
(0.0109269 0.306063 0)
(0.01411 0.306855 0)
(0.0179705 0.307664 0)
(0.0220679 0.308934 0)
(0.0266986 0.310443 0)
(0.0319539 0.312179 0)
(0.0380077 0.31413 0)
(0.0450311 0.316272 0)
(0.0532199 0.318564 0)
(0.0628031 0.320901 0)
(0.0740294 0.323144 0)
(0.0871725 0.325056 0)
(0.102516 0.326313 0)
(0.120296 0.326496 0)
(0.140751 0.325014 0)
(0.163965 0.321047 0)
(0.189802 0.313677 0)
(0.217924 0.301915 0)
(0.247373 0.284754 0)
(0.276888 0.261504 0)
(0.00333311 0.368841 0)
(0.00601476 0.275711 0)
(0.00769058 0.294056 0)
(0.0118282 0.30261 0)
(0.0151637 0.303109 0)
(0.0192921 0.303599 0)
(0.0236059 0.304411 0)
(0.028458 0.305356 0)
(0.0339191 0.306384 0)
(0.0401296 0.307474 0)
(0.0472546 0.308568 0)
(0.0554553 0.309617 0)
(0.0649159 0.310499 0)
(0.0758295 0.311055 0)
(0.0883921 0.311048 0)
(0.102796 0.310176 0)
(0.119182 0.308047 0)
(0.137634 0.304192 0)
(0.158115 0.297942 0)
(0.1804 0.288575 0)
(0.204084 0.275413 0)
(0.228408 0.25792 0)
(0.2523 0.235863 0)
(0.00361908 0.363766 0)
(0.00652321 0.273911 0)
(0.00806165 0.290668 0)
(0.0125652 0.298966 0)
(0.0159647 0.299161 0)
(0.0203025 0.299345 0)
(0.0247386 0.299712 0)
(0.02971 0.300124 0)
(0.0352536 0.300482 0)
(0.0414848 0.300769 0)
(0.0485498 0.300907 0)
(0.056588 0.300834 0)
(0.0657351 0.300427 0)
(0.0761391 0.299524 0)
(0.0879357 0.297905 0)
(0.101242 0.295299 0)
(0.116135 0.291361 0)
(0.132617 0.285712 0)
(0.150568 0.277852 0)
(0.169729 0.267204 0)
(0.189701 0.253284 0)
(0.209897 0.235857 0)
(0.229472 0.215015 0)
(0.00405859 0.358189 0)
(0.00709815 0.272283 0)
(0.00822201 0.287139 0)
(0.0131178 0.295177 0)
(0.0164797 0.295079 0)
(0.0209781 0.294977 0)
(0.0254475 0.294926 0)
(0.0304567 0.29483 0)
(0.0359872 0.294578 0)
(0.0421414 0.294131 0)
(0.0490413 0.29342 0)
(0.0568068 0.292363 0)
(0.0655288 0.290844 0)
(0.0753163 0.288707 0)
(0.0862598 0.285757 0)
(0.0984217 0.281757 0)
(0.111831 0.276421 0)
(0.126452 0.269444 0)
(0.142128 0.260457 0)
(0.158597 0.249027 0)
(0.175478 0.234771 0)
(0.192319 0.217607 0)
(0.208509 0.197854 0)
(0.00467127 0.351983 0)
(0.00770938 0.270999 0)
(0.00822668 0.283617 0)
(0.013456 0.291296 0)
(0.0166753 0.290939 0)
(0.0212739 0.290575 0)
(0.0256798 0.29013 0)
(0.030655 0.289562 0)
(0.0360946 0.288752 0)
(0.0420995 0.287644 0)
(0.0487685 0.286186 0)
(0.0561967 0.284277 0)
(0.0644443 0.281816 0)
(0.0735842 0.278654 0)
(0.0836742 0.274622 0)
(0.0947397 0.269517 0)
(0.106778 0.263113 0)
(0.119728 0.255169 0)
(0.133434 0.245413 0)
(0.147659 0.233533 0)
(0.162049 0.219214 0)
(0.176238 0.202422 0)
(0.189822 0.183579 0)
(0.00537071 0.345099 0)
(0.00828734 0.270088 0)
(0.00815004 0.280266 0)
(0.013533 0.287407 0)
(0.0165118 0.286826 0)
(0.0211185 0.286223 0)
(0.0253523 0.285405 0)
(0.0302095 0.284402 0)
(0.0354723 0.283077 0)
(0.0412565 0.281377 0)
(0.0476354 0.279257 0)
(0.0546798 0.276615 0)
(0.0624284 0.273356 0)
(0.0709246 0.269348 0)
(0.0802042 0.264443 0)
(0.0902727 0.258469 0)
(0.101109 0.251253 0)
(0.112637 0.242599 0)
(0.124716 0.232313 0)
(0.137157 0.220177 0)
(0.149665 0.205942 0)
(0.161918 0.189562 0)
(0.173666 0.171439 0)
(0.00604848 0.3376 0)
(0.00876925 0.26954 0)
(0.00798248 0.277242 0)
(0.013292 0.283634 0)
(0.0159342 0.282847 0)
(0.0204286 0.282018 0)
(0.0243636 0.280851 0)
(0.0289969 0.279442 0)
(0.0339721 0.277642 0)
(0.0394367 0.275408 0)
(0.0454393 0.272695 0)
(0.0520276 0.269413 0)
(0.0592279 0.265469 0)
(0.0670645 0.26075 0)
(0.0755594 0.255129 0)
(0.0847111 0.248462 0)
(0.0944898 0.240611 0)
(0.104817 0.231415 0)
(0.115579 0.220729 0)
(0.126641 0.20841 0)
(0.137791 0.194277 0)
(0.148745 0.178263 0)
(0.159363 0.160657 0)
(0.00666286 0.329589 0)
(0.00912109 0.269391 0)
(0.00766995 0.274691 0)
(0.0127046 0.280134 0)
(0.0148976 0.279145 0)
(0.0191436 0.278099 0)
(0.0226394 0.2766 0)
(0.0269232 0.274812 0)
(0.0314753 0.272572 0)
(0.0364867 0.269852 0)
(0.0419842 0.266605 0)
(0.0479971 0.262755 0)
(0.0545466 0.258215 0)
(0.0616478 0.252886 0)
(0.0693166 0.246658 0)
(0.0775496 0.239414 0)
(0.0863136 0.231032 0)
(0.0955415 0.221379 0)
(0.105153 0.210342 0)
(0.115062 0.197822 0)
(0.125146 0.1837 0)
(0.135158 0.167907 0)
(0.145053 0.150587 0)
(0.00719941 0.321192 0)
(0.00929161 0.269649 0)
(0.0071973 0.272746 0)
(0.0117939 0.277058 0)
(0.0134097 0.275881 0)
(0.0172749 0.27462 0)
(0.0201982 0.272801 0)
(0.0240056 0.270668 0)
(0.0279911 0.268018 0)
(0.032405 0.264863 0)
(0.0372489 0.261139 0)
(0.0425435 0.256791 0)
(0.0483003 0.251733 0)
(0.0545352 0.245876 0)
(0.0612647 0.239123 0)
(0.0684807 0.23137 0)
(0.0761542 0.222515 0)
(0.0842378 0.212442 0)
(0.0926775 0.201064 0)
(0.10142 0.188297 0)
(0.11042 0.174063 0)
(0.119453 0.158291 0)
(0.128565 0.141022 0)
(0.00759653 0.312619 0)
(0.00920292 0.270247 0)
(0.00657388 0.271472 0)
(0.0106159 0.274522 0)
(0.01156 0.273177 0)
(0.0149277 0.271691 0)
(0.017185 0.269585 0)
(0.020417 0.267134 0)
(0.0237152 0.264121 0)
(0.027418 0.260584 0)
(0.0314848 0.256451 0)
(0.0359332 0.251677 0)
(0.040768 0.24617 0)
(0.0460082 0.23986 0)
(0.0516639 0.232652 0)
(0.0577335 0.224452 0)
(0.0641909 0.215181 0)
(0.0710061 0.20473 0)
(0.0781405 0.193029 0)
(0.085552 0.179997 0)
(0.0932386 0.165565 0)
(0.100991 0.14966 0)
(0.10892 0.132289 0)
(0.00778109 0.304121 0)
(0.00880733 0.271074 0)
(0.00580607 0.270823 0)
(0.00923241 0.272557 0)
(0.00947603 0.271074 0)
(0.0122886 0.269338 0)
(0.0138375 0.266989 0)
(0.0164357 0.264243 0)
(0.0189891 0.260927 0)
(0.0219218 0.257065 0)
(0.0251474 0.252595 0)
(0.0286802 0.24746 0)
(0.0325231 0.241583 0)
(0.0367019 0.234887 0)
(0.0412138 0.227302 0)
(0.0460678 0.218738 0)
(0.0512344 0.209119 0)
(0.0566913 0.198357 0)
(0.06241 0.186371 0)
(0.0683412 0.173098 0)
(0.0745065 0.15846 0)
(0.0807138 0.142381 0)
(0.0870963 0.124909 0)
(0.00766778 0.296003 0)
(0.00806558 0.272094 0)
(0.00492285 0.270779 0)
(0.00770072 0.271206 0)
(0.00729638 0.269636 0)
(0.00953451 0.267621 0)
(0.0103997 0.265059 0)
(0.0123583 0.262059 0)
(0.0141726 0.258489 0)
(0.0163418 0.254365 0)
(0.0187298 0.249626 0)
(0.0213545 0.244198 0)
(0.0242174 0.238025 0)
(0.0273514 0.231029 0)
(0.0307515 0.223144 0)
(0.0344122 0.214305 0)
(0.0383108 0.204405 0)
(0.0424261 0.193405 0)
(0.0467311 0.181192 0)
(0.0511908 0.167736 0)
(0.0558224 0.152959 0)
(0.0604587 0.136771 0)
(0.0652175 0.119285 0)
(0.00706797 0.288606 0)
(0.00689187 0.273201 0)
(0.00396915 0.271287 0)
(0.00605754 0.270468 0)
(0.00516688 0.268863 0)
(0.00682633 0.266545 0)
(0.00711171 0.263818 0)
(0.0084764 0.260596 0)
(0.00961493 0.256824 0)
(0.0110842 0.252492 0)
(0.0126996 0.24754 0)