/*--------------------------------*- C++ -*----------------------------------*\
| =========                 |                                                 |
| \\      /  F ield         | OpenFOAM: The Open Source CFD Toolbox           |
|  \\    /   O peration     | Version:  5.x                                   |
|   \\  /    A nd           | Web:      www.OpenFOAM.org                      |
|    \\/     M anipulation  |                                                 |
\*---------------------------------------------------------------------------*/
FoamFile
{
    version     2.0;
    format      ascii;
    class       volScalarField;
    location    "1";
    object      alpha.water;
}
// * * * * * * * * * * * * * * * * * * * * * * * * * * * * * * * * * * * * * //

dimensions      [0 0 0 0 0 0 0];

internalField   nonuniform List<scalar> 
2268
(
1
1
1
1
1
1
1
1
1
1
1
1
1
1
0.988773
0.945549
0.951324
1
0.988916
0.98224
0.996154
0.999974
1
1
1
1
1
1
1
1
1
1
1
1
1
0.999745
0.96745
0.94116
0.941449
0.974034
0.998258
0.979105
0.979131
0.979578
1
1
1
1
1
1
1
1
1
1
1
1
1
1
0.999928
0.972257
0.941169
0.941169
0.967747
0.996903
0.996581
0.992833
0.999331
0.999942
1
1
1
1
1
1
1
1
1
1
1
1
1
0.999978
0.994213
0.971294
0.970855
0.996316
0.999588
1
1
1
0.999999
0.999996
1
1
1
1
0.999999
1
1
1
1
1
1
1
0.999991
0.999985
0.999964
1
1
1
1
1
0.999999
1
1
1
1
1
1
0.999995
0.999838
0.999993
1
1
1
1
1
1
0.999999
0.999998
1
1
1
0.999999
0.999997
0.999997
0.999993
1
1
1
1
1
0.999998
0.999313
0.999524
0.999993
1
1
1
1
1
1
1
0.999999
1
0.999998
0.999988
0.99996
0.999933
0.996427
0.99889
1
0.999995
1
1
1
0.999321
0.999149
0.999995
1
1
1
1
1
1
1
1
0.999998
0.999978
0.999841
0.999535
0.999689
0.990982
0.996347
0.988752
0.999789
0.986713
0.826799
0.734609
0.889445
0.998578
1
0.980199
0.894954
1
1
1
0.995142
0.969962
0.953958
0.919106
0.790217
0.811445
0.99903
0.927378
0.901158
0.917849
0.892826
0.874339
0.874247
0.925596
0.984318
0.853746
0.988273
0.999992
0.844383
0.699928
0.767941
0.865626
0.890938
0.860796
0.900334
0.99876
0.884087
0.926569
0.992294
0.991297
0.958985
0.902335
0.94933
0.995672
0.615189
0.480377
0.582806
0.417829
0.418191
0.751105
0.836633
0.590426
0.453545
0.837657
1
0.892791
0.992294
0.993551
0.994809
0.995083
0.995139
0.996063
0.995783
0.394356
0.398065
0.401018
0.615647
0.788187
0.785839
0.455368
0.277933
0.234105
0.192662
0.994548
0.993988
0.992238
0.97151
0.913071
0.99286
0.996066
0.996063
0.741305
0.391735
0.56667
0.541261
0.76311
0.766456
0.348745
0.10472
0.200772
0.496009
0.348939
0.741984
0.983481
0.991316
0.915206
0.509503
0.639793
0.996039
0.958242
0.535061
0.528415
0.769964
0.769701
0.75931
0.521108
0.193206
0.0625
0.0621089
0.381393
1
0.915562
0.987399
0.989636
0.924321
0.511438
0.328919
0.863487
0.852046
0.554491
0.769022
0.769725
0.769873
0.44772
0.094086
0.0714612
0.0626251
0.0621089
0.109556
0.733167
1
0.999891
0.824619
0.530361
0.231353
0.121611
0.430474
0.65066
0.749028
0.760449
0.546089
0.257593
0.118574
0.105652
0.202147
0.201372
0.0622856
0.0686009
0.422878
0.991493
0.997916
1
1
0.999397
0.999878
0.999878
0.940806
0.803496
0.680825
0.743106
0.835924
0.926038
0.988251
1
0.999998
0.999977
0.993163
0.962065
0.94387
0.995728
0.991098
0.998448
0.958275
0.984219
0.999946
0.999899
0.994747
0.999878
0.95261
0.253661
0.0360636
0.0407929
0.0821604
0.1523
0.256398
0.570046
0.886795
0.957449
0.901587
0.607183
0.357335
0.331247
0.780368
0.999837
0.999878
1
0.993513
0.993495
0.999866
0.999797
0.811017
0.119157
0.00864076
0.00878476
0.0112196
0.0181854
0.0496529
0.382357
0.638286
0.659881
0.374833
0.164946
0.0829907
0.0768287
0.076376
0.424873
0.999829
0.999837
1
0.999024
0.996969
0.703623
0.127535
0.00814215
0.0083252
0.00848474
0.00864108
0.00992063
0.0134939
0.0681256
0.137878
0.141404
0.135133
0.118626
0.0979631
0.0816019
0.0765164
0.0890758
0.497694
0.999581
0.999247
1
0.920662
0.293498
0.0113356
0.00876128
0.00815109
0.00814093
0.00829636
0.00848474
0.00914972
0.0115031
0.0172229
0.154952
0.398998
0.460126
0.480481
0.450118
0.375386
0.302702
0.487472
0.90714
0.997341
0.777517
0.995479
0.532594
0.016905
0.0436904
0.07408
0.0502033
0.00829636
0.0084741
0.0084741
0.013966
0.018679
0.0268594
0.25082
0.405037
0.414031
0.533485
0.771464
0.892056
0.900886
0.900886
0.905146
0.813984
0.114854
0.963358
0.318365
0.00779423
0.0460684
0.0730101
0.0334335
0.101876
0.227616
0.24694
0.247113
0.247099
0.247101
0.091198
6.65314e-05
0.00030328
0.00147155
0.0937147
0.607995
0.898062
0.901434
0.8992
0.36083
0.00645495
0.923649
0.224515
0.00359259
0.0134466
0.0232922
0.0153986
0.125062
0.197431
0.111904
0.0394665
0.01563
0.00223205
2.64731e-06
1.36151e-05
6.55163e-05
0.000303201
0.00147128
0.00829709
0.524167
0.898062
0.77066
0.112424
0.00596883
0.838404
0.163142
0.00171842
0.00136073
0.00114993
0.00841517
0.0201642
0.00731054
0.000133344
1.57356e-08
1.67043e-08
4.77513e-08
2.57403e-07
1.71795e-06
1.15563e-05
6.6771e-05
0.000352841
0.00203474
0.0772936
0.654635
0.727416
0.0506955
0.00593013
0.839504
0.098414
0.000826217
0.000482009
0.000281808
0.000702565
0.000207004
6.80117e-06
1.56328e-08
1.40696e-08
1.15673e-08
1.28909e-08
1.86267e-08
7.40661e-08
6.32687e-07
4.23924e-06
3.97048e-05
0.000314075
0.00219214
0.180815
0.586528
0.30043
0.0140961
0.890851
0.0559961
0.00037975
0.000171392
6.79672e-05
5.39166e-05
2.6445e-05
2.33194e-07
1.33773e-08
1.30734e-08
1.14366e-08
1.22311e-08
1.30625e-08
1.83753e-08
-2.22152e-08
-1.50381e-07
3.77437e-07
1.97821e-05
0.000136359
0.000996987
0.16742
0.395365
0.394991
0.79792
0.0418228
0.000160215
6.01467e-05
1.5967e-05
9.11536e-06
4.0773e-06
3.02075e-07
1.10492e-07
7.83329e-09
1.13097e-08
1.71072e-08
1.89127e-08
3.70573e-08
3.80495e-08
3.39755e-08
1.02972e-07
-3.0902e-08
5.5924e-06
3.20418e-05
0.000122992
0.0878629
0.234875
0.213692
0.0289664
5.7019e-05
1.60012e-05
3.62196e-06
1.46995e-06
5.19547e-07
8.62241e-08
3.31641e-08
7.05073e-09
1.0321e-08
2.2132e-08
1.47764e-07
2.00804e-07
5.79332e-08
5.34246e-08
6.85536e-08
8.16996e-08
4.55768e-07
7.76142e-06
7.003e-05
0.00012833
0.000174272
0.0645076
0.0111184
1.74413e-05
3.32355e-06
8.41424e-07
2.41302e-07
6.1997e-08
8.83985e-09
6.20155e-09
6.13638e-09
7.17238e-09
1.09783e-07
1.98913e-07
2.01357e-07
1.60665e-07
8.12761e-08
3.85281e-07
1.29002e-08
2.0024e-05
0.00032348
0.000484446
0.000229266
0.000124393
0.485357
0.000930509
5.21621e-06
7.32222e-07
2.17356e-07
4.78196e-08
1.17808e-08
6.22221e-09
6.13606e-09
6.13638e-09
6.13638e-09
6.61785e-09
3.94613e-08
1.16894e-07
1.54605e-07
1.488e-07
1.09571e-08
1.37572e-08
1.19087e-05
2.14169e-06
0.000484766
0.000882523
0.000860954
0.875269
0.00545966
3.3262e-06
1.98301e-07
3.84345e-08
1.69957e-08
7.72564e-09
6.86092e-09
6.22224e-09
6.13638e-09
9.68033e-09
1.35203e-08
1.42992e-08
9.18172e-09
4.69404e-08
4.65847e-08
3.12702e-08
6.55781e-09
2.60018e-10
2.47971e-10
3.507e-11
0.000289491
0.000875817
0.717411
0.0140195
1.011e-05
1.94633e-08
2.15796e-08
1.78184e-08
1.33451e-08
7.72399e-09
6.68106e-09
1.13231e-08
5.16827e-08
1.70672e-07
2.92626e-08
2.31612e-09
6.92297e-10
5.75235e-10
7.54545e-10
5.1629e-09
1.05795e-09
2.1923e-10
2.93922e-11
3.06344e-11
2.05235e-05
0.146975
0.0287628
3.28832e-05
1.23807e-06
4.29254e-08
2.37446e-08
1.67331e-08
1.21106e-08
0.000158702
0.000245834
7.35547e-05
3.93881e-05
2.48206e-07
1.2784e-08
1.16088e-09
3.39548e-10
2.63617e-10
2.396e-10
4.49277e-10
2.50995e-10
4.13464e-11
3.23801e-11
1.47184e-11
-8.22737e-08
0.0330496
0.0016081
9.30394e-06
3.18354e-07
5.96434e-08
3.27962e-07
7.20083e-05
0.000259327
0.000260349
0.000259327
0.000257952
2.06679e-05
5.15083e-07
7.23861e-08
2.40652e-09
2.79518e-10
2.109e-10
1.80586e-10
1.23913e-10
1.27743e-10
1.27743e-10
5.84492e-11
-2.76455e-07
0.0231323
0.0102616
5.61927e-05
4.1317e-06
3.57818e-07
2.52495e-06
0.000256142
0.000260345
0.000260036
0.000260345
0.000258706
0.000177159
1.32726e-05
1.60682e-07
6.08133e-09
6.12617e-10
2.25543e-10
1.30171e-10
8.16916e-11
5.17306e-11
3.27147e-11
2.37453e-11
-2.97193e-08
0.00148835
0.00980943
0.00243855
2.66969e-05
4.20306e-06
4.34516e-06
0.000106276
0.000237386
0.00018997
0.000204935
0.000256017
0.000247759
2.87521e-05
1.69842e-07
1.59346e-08
1.55753e-09
2.56668e-10
8.47088e-11
5.00214e-11
2.49313e-11
1.35542e-11
1.29586e-11
-3.0136e-09
2.79799e-05
0.00203442
0.00273998
0.00103603
2.16682e-05
6.72131e-06
2.26405e-05
4.05305e-05
2.92464e-05
2.82558e-05
0.00015936
0.000217708
3.58528e-05
4.1395e-07
4.36677e-08
4.69423e-09
5.09884e-10
6.75512e-11
2.85552e-11
1.23399e-11
6.57984e-12
7.60231e-12
-1.81089e-09
1.99286e-06
6.99932e-05
0.00160854
0.00150878
0.000372036
2.25998e-05
3.53859e-05
2.9827e-05
2.82319e-05
2.88235e-05
7.49573e-05
0.000185051
4.7012e-05
6.92355e-07
7.99573e-08
7.99681e-09
7.85992e-10
9.42952e-11
1.61807e-11
5.76207e-12
4.3938e-12
7.20815e-12
-7.53859e-10
1.17145e-07
7.93212e-06
4.95344e-05
0.000488688
0.000519197
0.000230624
3.8814e-05
3.21783e-05
2.9827e-05
3.09656e-05
0.000146652
0.000166845
5.02825e-05
7.92111e-07
9.71933e-08
1.011e-08
9.21907e-10
1.04463e-10
1.11303e-11
4.05528e-12
3.43873e-12
8.48402e-12
-2.91519e-11
3.94564e-09
4.07943e-07
3.5656e-06
1.18117e-05
0.000175034
0.000200585
4.20946e-05
3.56915e-05
3.21783e-05
0.000124557
0.000164381
0.000154811
2.34478e-05
5.9006e-07
7.18519e-08
7.70418e-09
7.09637e-10
7.67031e-11
7.67339e-12
2.64735e-12
2.82868e-12
8.0645e-12
-2.2686e-12
1.53904e-10
6.90782e-09
1.83077e-07
1.37996e-06
4.93733e-06
1.40398e-05
3.09979e-05
6.47508e-05
0.000147826
0.000164381
0.000162161
9.2807e-05
3.80017e-06
2.34933e-07
2.8515e-08
2.98256e-09
2.7322e-10
2.97212e-11
3.04426e-12
1.09197e-12
1.79437e-12
3.7116e-12
2.79059e-11
3.31068e-11
4.22555e-10
7.70024e-09
1.1681e-07
1.13491e-06
4.93735e-06
0.000114741
0.000158007
0.000161604
0.00016151
0.000113355
9.71935e-06
3.2605e-07
4.32407e-08
5.01305e-09
5.11245e-10
5.59252e-11
5.27008e-12
6.16937e-13
4.56757e-13
7.66487e-13
1.07992e-12
1.97321e-11
7.70943e-11
1.08225e-10
4.46222e-10
8.41655e-09
7.30082e-07
9.55492e-06
9.93549e-05
0.000149672
0.000158007
8.69303e-05
8.35006e-06
3.18615e-07
4.98208e-08
5.91307e-09
6.34451e-10
7.37351e-11
8.16904e-12
1.07378e-12
9.86552e-14
1.0699e-13
1.78198e-13
1.74667e-13
7.854e-12
6.71779e-11
5.95804e-11
1.21162e-10
1.70929e-09
6.43296e-07
5.40677e-06
1.29273e-05
4.30094e-05
2.45226e-05
3.17049e-06
2.0665e-07
4.55887e-08
6.62904e-09
8.16144e-10
9.54789e-11
1.11652e-11
1.79337e-12
1.47896e-13
8.96229e-15
7.73247e-15
1.38122e-14
1.41328e-14
1.56139e-12
2.96396e-11
4.44484e-11
6.19319e-11
2.88724e-09
6.35169e-08
1.19879e-07
1.76833e-07
3.70206e-07
2.58326e-07
9.22356e-08
2.24371e-08
4.47602e-09
6.98319e-10
1.00917e-10
2.01852e-11
2.80996e-12
2.065e-13
1.21764e-14
6.52256e-16
1.64332e-16
4.11298e-16
6.5266e-16
1.90075e-13
5.89669e-12
1.24591e-11
3.48516e-11
1.73508e-10
4.71109e-10
3.39522e-09
1.71054e-08
3.59299e-08
2.45033e-08
8.53046e-09
2.13779e-09
4.37809e-10
7.80834e-11
2.33444e-11
3.63128e-12
2.71828e-13
1.62382e-14
9.14026e-16
4.63838e-17
4.83398e-18
1.35107e-17
3.18841e-17
1.95726e-14
6.88236e-13
1.43117e-12
6.1756e-12
1.9401e-11
5.04124e-11
3.35402e-10
1.45089e-09
3.0128e-09
2.02123e-09
7.21338e-10
2.08577e-10
4.7241e-11
1.88248e-11
3.43894e-12
2.90362e-13
1.96766e-14
1.15813e-15
5.89163e-17
2.81108e-18
2.89621e-19
6.21724e-19
1.44867e-18
1.9294e-15
7.33948e-14
1.26771e-13
5.49572e-13
3.88095e-12
1.17029e-11
3.76279e-11
1.48092e-10
2.39724e-10
1.74281e-10
7.39099e-11
2.29949e-11
1.1304e-11
2.3812e-12
2.3188e-13
1.8655e-14
1.27523e-15
7.23964e-17
3.4823e-18
1.55059e-19
2.1803e-20
3.07399e-20
7.94578e-20
1.72371e-16
8.11989e-15
1.13831e-14
4.18098e-14
3.70463e-13
2.37887e-12
7.6001e-12
1.39825e-11
2.35423e-11
1.63388e-11
1.15209e-11
5.35411e-12
1.19e-12
1.39987e-13
1.36143e-14
1.0969e-15
7.24301e-17
3.95768e-18
1.80285e-19
7.7967e-21
1.58238e-21
2.27404e-21
1.25863e-20
1.33585e-17
8.61725e-16
1.00578e-15
3.08338e-15
2.45305e-14
2.20718e-13
1.14357e-12
2.86215e-12
3.57882e-12
3.3576e-12
1.73062e-12
4.50835e-13
6.45156e-14
7.69383e-15
7.42003e-16
5.76289e-17
3.65434e-18
1.91345e-19
8.33529e-21
3.6022e-22
1.01756e-22
2.22833e-22
2.83336e-21
1.04669e-18
8.43226e-17
8.39929e-17
2.23084e-16
1.61513e-15
1.34381e-14
8.49426e-14
2.98216e-13
3.90652e-13
3.09614e-13
1.11866e-13
2.23731e-14
3.36347e-15
3.95031e-16
3.66648e-17
2.73331e-18
1.66053e-19
8.30393e-21
3.4547e-22
1.53451e-23
6.51401e-24
2.7554e-23
4.82385e-22
8.97046e-20
7.61827e-18
6.54812e-18
1.5479e-17
1.0632e-16
8.22801e-16
4.82466e-15
1.68203e-14
2.26763e-14
1.56992e-14
5.49233e-15
1.12266e-15
1.64826e-16
1.86268e-17
1.65872e-18
1.18409e-19
6.86784e-21
3.26613e-22
1.29229e-23
6.32243e-25
4.34504e-25
3.69438e-24
6.54358e-23
7.42887e-21
6.41543e-19
4.78569e-19
1.02519e-18
6.75727e-18
5.0251e-17
2.76683e-16
8.88163e-16
1.13732e-15
7.78148e-16
2.67985e-16
5.31317e-17
7.50942e-18
8.14281e-19
6.93872e-20
4.725e-21
2.60365e-22
1.1703e-23
4.39218e-25
2.64729e-26
3.28687e-26
5.61697e-25
1.06769e-23
5.73678e-22
5.07848e-20
3.31118e-20
6.50495e-20
4.11816e-19
2.96048e-18
1.55581e-17
4.69758e-17
5.70104e-17
3.77138e-17
1.23991e-17
2.36433e-18
3.21022e-19
3.33047e-20
2.70481e-21
1.74792e-22
9.09014e-24
3.83005e-25
1.36624e-26
1.21689e-27
3.35785e-27
1.14655e-25
2.20174e-24
4.07452e-23
3.80682e-21
2.202e-21
3.98901e-21
2.42146e-20
1.67979e-19
8.43837e-19
2.40153e-18
2.75766e-18
1.74407e-18
5.44478e-19
9.95928e-20
1.29472e-20
1.27931e-21
9.84485e-23
5.99303e-24
2.91417e-25
1.13841e-26
3.93677e-28
6.98645e-29
5.30671e-28
2.69961e-26
4.29512e-25
2.35635e-24
2.73636e-22
8.34274e-23
1.72798e-22
1.33611e-21
9.16249e-21
4.31116e-20
1.09047e-19
1.10458e-19
7.38239e-20
2.27525e-20
4.02954e-21
5.0324e-22
4.72109e-23
3.42745e-24
1.95531e-25
8.83568e-27
3.17464e-28
1.04028e-29
4.12241e-30
1.07006e-28
5.5099e-27
6.11823e-26
6.31532e-26
9.76934e-24
4.19319e-23
5.00351e-23
6.49516e-23
2.74711e-22
1.85993e-21
9.74103e-21
1.83884e-20
5.2753e-21
9.23811e-22
1.16904e-22
1.11856e-23
9.95279e-25
6.86534e-26
3.66314e-27
1.5303e-28
5.40291e-30
9.27804e-31
9.27804e-31
1.35398e-29
5.80422e-28
3.79962e-27
1
1
1
1
0.999941
0.999995
0.999987
0.999941
0.999866
0.999781
0.973875
0.850855
0.96728
0.796116
0.291422
0.073442
0.110165
0.0234521
0.035051
0.0398601
0.00714809
0.00827566
0.0111828
0.132825
0.0060611
0.00644416
0.0137474
0.0140685
0.0059294
0.00593172
0.00596971
0.00603787
0.00593172
0.0059294
0.00595218
0.00596972
0.0182867
0.00608189
0.0164755
0.0135892
0.216663
0.0661799
0.213955
0.187608
0.233038
0.229438
0.229056
0.228393
0.0204958
0.0333687
0.0229404
0.00602602
6.76162e-05
3.18206e-05
9.66215e-06
1.24003e-06
0.000664338
0.000471287
0.000292253
0.000122996
0.000881102
0.000879153
0.000850255
0.000527438
0.000504671
0.000202122
2.18355e-05
1.55766e-05
1.43885e-11
1.43885e-11
2.68959e-05
1.37918e-05
1.45725e-11
1.43885e-11
3.88454e-06
3.99026e-06
1.91142e-11
1.46801e-11
1.41175e-11
1.40769e-11
1.4312e-11
1.48531e-11
1.40933e-11
1.41175e-11
9.43245e-12
1.33144e-11
2.5083e-11
5.38632e-11
1.49859e-11
2.88719e-11
6.16117e-11
1.09508e-10
1.92889e-11
3.6536e-11
7.53951e-11
1.18822e-10
1.79887e-11
3.24791e-11
5.62408e-11
8.45451e-11
6.45904e-12
9.12384e-12
1.32797e-11
1.93521e-11
1.34902e-12
1.4765e-12
1.43893e-12
1.32683e-12
1.5019e-13
1.16235e-13
7.92222e-14
6.37237e-14
1.26835e-14
1.01461e-14
8.20654e-15
8.28494e-15
6.77783e-16
6.67081e-16
6.652e-16
7.0607e-16
4.60494e-17
4.80057e-17
4.79077e-17
4.84807e-17
2.21458e-18
2.6614e-18
3.24597e-18
4.00783e-18
1.61423e-19
2.69481e-19
5.07546e-19
8.50997e-19
3.49137e-20
6.9414e-20
1.48977e-19
2.58911e-19
8.46549e-21
1.68923e-20
3.52264e-20
5.77799e-20
1.41206e-21
2.72793e-21
5.39722e-21
8.26133e-21
1.87548e-22
3.57357e-22
6.8275e-22
1.00898e-21
3.07834e-23
5.79998e-23
1.04231e-22
1.58745e-22
6.15878e-24
1.04238e-23
1.88156e-23
3.70684e-23
1.04605e-24
1.55046e-24
4.44257e-24
1.21326e-23
1.18633e-25
1.79595e-25
1.18685e-24
2.3878e-24
5.5284e-27
1.34018e-26
8.24198e-26
9.2646e-26
0.999941
0.908157
0.29255
0.0914848
0.086494
0.0938054
0.19958
0.601077
0.483645
0.154854
0.147556
0.135933
0.132031
0.190372
0.209354
0.206551
0.203606
0.0650335
0.105294
0.969802
0.252385
0.079411
0.0812431
0.0820645
0.100035
0.358495
0.468694
0.141432
0.146678
0.151094
0.198049
0.215409
0.215175
0.213736
0.155256
0.0529749
0.00982267
-0.000103583
0.359859
0.0759086
0.07757
0.079411
0.14187
0.33393
0.353673
0.289853
0.102901
0.190382
0.217047
0.217113
0.216378
0.177444
0.0612343
0.0010488
0.000922032
0.00199453
-6.76075e-05
0.0728853
0.0753673
0.0759086
0.151576
0.331542
0.333333
0.326318
0.114995
0.102608
0.208807
0.217087
0.202088
0.0512448
0.000371072
0.000570366
0.000885578
0.000855752
0.000665301
6.4607e-19
0.0588372
0.203377
0.317067
0.324549
0.327917
0.284566
0.128986
0.114514
0.10795
0.177726
0.134436
0.000196901
5.72893e-05
0.000308578
0.000365154
0.00239861
0.000843697
0.000205615
1.33541e-19
0.254555
0.268968
0.272647
0.212493
0.139841
0.132708
0.13553
0.172105
0.179197
0.0427804
0.000188161
1.32084e-05
3.29702e-05
0.000487891
0.00314567
0.00313812
0.000719433
9.48035e-05
-8.74272e-22
0.00742989
0.00609716
0.00618239
0.00658604
0.0313737
0.127718
0.187581
0.187683
0.186601
0.0326818
8.47994e-07
4.46886e-06
5.62614e-06
0.00140111
0.01236
0.00175045
0.00076562
9.71234e-05
2.01897e-20
0.00607035
0.00607009
0.00609716
0.00631263
0.14719
0.186606
0.187634
0.156632
0.0591166
0.0019706
6.03298e-07
7.68408e-06
4.58507e-06
0.00478552
0.0126339
0.00578563
0.000580717
0.000143495
-1.9534e-20
0.00603787
0.00609715
0.00631252
0.0660747
0.180543
0.185706
0.101878
6.22476e-08
4.51237e-08
3.01977e-08
4.34059e-07
4.16938e-06
2.77685e-06
0.00674955
0.0128396
0.0130792
0.00238154
0.00185929
0.00178675
0.00650646
0.00637078
0.0397206
0.169617
0.175035
0.0686411
6.22481e-08
4.51238e-08
3.73491e-08
1.96713e-08
4.56805e-08
9.60521e-08
5.17829e-07
0.000386383
0.0117842
0.0131129
0.0129575
0.00667781
0.00175153
0.102643
0.0906784
0.127819
0.103929
0.0225281
8.49023e-08
1.79477e-07
1.92363e-07
2.36697e-08
1.11916e-08
1.96713e-08
6.63021e-08
4.27732e-07
3.22286e-06
0.00175025
0.0131015
0.0131129
0.00576255
0.000465229
0.190611
0.138338
0.0889003
0.0050798
7.27506e-08
5.81431e-08
2.27137e-07
2.10432e-07
2.64984e-08
3.60517e-09
1.06609e-08
7.77788e-08
7.21526e-07
6.59498e-06
0.00061358
0.00829464
0.011489
0.00114434
-3.88821e-09
3.24131e-07
1.75853e-07
9.14814e-08
8.00086e-08
7.27954e-08
4.50339e-08
1.40601e-08
5.80435e-09
3.60517e-09
1.75837e-09
2.88149e-09
2.18695e-08
2.45884e-07
2.36816e-06
0.000147007
0.000565863
0.00104872
8.53142e-06
-1.33249e-09
5.03994e-07
7.16383e-07
1.38884e-06
2.54121e-07
3.52326e-07
4.36365e-07
2.07072e-07
1.15927e-08
1.75837e-09
1.56543e-09
1.36446e-09
1.66311e-09
8.37691e-10
6.19737e-08
1.44607e-05
6.57329e-05
2.77952e-05
9.70974e-06
7.35848e-06
1.24003e-06
1.30575e-06
9.60582e-06
9.6409e-06
3.54802e-07
6.58831e-07
9.02463e-07
1.18378e-06
1.47936e-07
1.36446e-09
1.35643e-09
1.33459e-09
1.53145e-09
4.33937e-09
3.04901e-08
4.18444e-07
3.70921e-06
0.000117751
0.000539271
9.05022e-05
1.56479e-06
4.48993e-06
1.6459e-05
1.65503e-05
1.65417e-05
1.37294e-05
9.76967e-06
3.36279e-07
3.06332e-09
1.35643e-09
1.35589e-09
1.54009e-09
2.17184e-09
4.28399e-09
3.40874e-08
7.16214e-07
7.87623e-05
0.000141697
0.000224106
2.50401e-05
2.66371e-07
2.7097e-07
1.12442e-05
1.65628e-05
1.64209e-05
1.04402e-05
2.67247e-07
2.92809e-09
1.35643e-09
1.42759e-09
2.16652e-09
5.62345e-09
6.39838e-09
7.86535e-09
1.45585e-06
1.09137e-05
3.76459e-23
8.38682e-05
2.90534e-05
2.20961e-06
3.64711e-07
1.55172e-08
1.34909e-06
1.09116e-06
1.3025e-10
1.00638e-07
3.07169e-08
1.58008e-09
1.90668e-09
6.58223e-09
6.40444e-09
8.0713e-09
1.23997e-08
7.59363e-06
0.000128221
2.01437e-05
5.14825e-09
2.74894e-09
2.54452e-06
1.52622e-06
8.24433e-09
1.79158e-10
1.1945e-10
1.28794e-10
1.3025e-10
1.34243e-08
2.18489e-09
9.73139e-08
4.21609e-07
1.3871e-08
6.31368e-08
5.1082e-08
1.2406e-05
0.000129269
3.64991e-05
1.57166e-09
2.25314e-09
3.29411e-09
5.07823e-08
1.1067e-07
6.20987e-09
1.06791e-10
1.29143e-10
1.28795e-10
1.31969e-10
2.30933e-10
8.20167e-07
6.9884e-06
2.34262e-06
1.24057e-07
1.18206e-05
0.000102867
0.000129269
3.40865e-05
1.56125e-11
1.96261e-11
2.31693e-11
2.41425e-11
2.50712e-11
2.41756e-11
1.06336e-10
2.09722e-10
2.19648e-10
1.78577e-10
5.55818e-10
2.46506e-06
8.34801e-06
7.12817e-06
4.09975e-07
4.70829e-05
0.000125899
0.000115043
1.15998e-06
8.60824e-11
1.0603e-10
7.27263e-11
2.69935e-11
2.83669e-11
6.90742e-11
1.68327e-10
2.5532e-10
2.71275e-10
2.62577e-10
1.01131e-08
4.58831e-06
8.34801e-06
8.26473e-06
1.6245e-07
4.21694e-05
0.000106713
9.40436e-06
0
1.26257e-10
1.17177e-10
7.30022e-11
3.95037e-11
4.04741e-11
7.81606e-11
1.69568e-10
1.41223e-10
1.96955e-10
1.76809e-08
5.64288e-08
5.73314e-06
8.34801e-06
5.28794e-06
1.14577e-08
1.22643e-06
4.62617e-11
4.1189e-12
2.51396e-12
1.25045e-10
7.81258e-11
3.24552e-11
2.37241e-11
2.9619e-11
7.72789e-11
1.36275e-10
2.85085e-11
1.57278e-09
1.02304e-07
4.92242e-08
3.97679e-06
8.28919e-06
1.11005e-06
6.17221e-10
6.17221e-10
1.11674e-09
3.76029e-11
0
7.6732e-11
3.04036e-11
1.0351e-11
1.06843e-11
1.68781e-11
6.47998e-11
5.92177e-11
7.63526e-12
2.98108e-08
1.16856e-07
3.45049e-08
8.70321e-07
5.00462e-06
3.15242e-07
7.83451e-10
6.17221e-10
1.27456e-08
2.35234e-08
0
1.65742e-11
7.18712e-12
3.88184e-12
4.24186e-12
1.05763e-11
4.07905e-11
3.09165e-11
7.57112e-12
9.60458e-08
1.16856e-07
3.44348e-08
3.44481e-09
3.363e-09
8.86414e-08
1.68574e-07
1.60931e-08
1.87737e-08
2.76822e-07
-7.83361e-19
1.00143e-12
9.83969e-13
1.10425e-12
1.63129e-12
7.79076e-12
2.66459e-11
2.03508e-11
7.53804e-12
9.1775e-08
1.16856e-07
4.30957e-08
3.32376e-09
3.36128e-09
3.36426e-09
3.21881e-07
6.37056e-08
1.60356e-08
3.50038e-07
6.46792e-07
1.00061e-13
2.07745e-13
3.17594e-13
8.17213e-13
5.96413e-12
1.85553e-11
1.64881e-11
7.5232e-12
3.0544e-09
5.29287e-08
2.72741e-08
3.28562e-09
3.32204e-09
3.36128e-09
2.15383e-07
6.97556e-08
1.6034e-08
8.62701e-08
1.74899e-06
1.62556e-14
3.42864e-14
8.39783e-14
5.04079e-13
4.10082e-12
1.30621e-11
1.37288e-11
7.54018e-12
6.48371e-13
6.46804e-13
6.46804e-13
2.63878e-09
3.52038e-09
6.84901e-09
5.40283e-09
5.44168e-09
3.47753e-08
4.57473e-09
2.44294e-07
1.14406e-15
4.4277e-15
3.57473e-14
3.75741e-13
2.75618e-12
8.54632e-12
9.99372e-12
7.13981e-12
1.57769e-12
6.47004e-13
6.46803e-13
1.61697e-09
1.3046e-08
2.60002e-08
5.59926e-09
3.84557e-09
3.88217e-08
4.52778e-09
0
7.48684e-17
1.61445e-15
2.40771e-14
2.62871e-13
1.6671e-12
4.49048e-12
4.99859e-12
4.12319e-12
1.90193e-12
6.92247e-13
6.47004e-13
1.97862e-09
2.73464e-08
2.81114e-08
2.09274e-08
3.84215e-09
3.87649e-08
6.31144e-09
1.14259e-12
1.72047e-17
8.66635e-16
1.50293e-14
1.47179e-13
8.20217e-13
1.7851e-12
1.76893e-12
1.56457e-12
1.1925e-12
6.98562e-13
6.48496e-13
4.43234e-09
2.79325e-08
2.81114e-08
2.20957e-08
3.1019e-09
1.01671e-08
4.11292e-09
2.92028e-11
7.03226e-18
3.74215e-16
6.74319e-15
6.01059e-14
2.89721e-13
4.81407e-13
4.95722e-13
6.47945e-13
7.11931e-13
7.31483e-13
6.67802e-13
4.59037e-09
2.18779e-08
2.03185e-08
2.43737e-09
7.72657e-10
7.20215e-11
3.64137e-10
4.82236e-11
2.09688e-18
1.23721e-16
1.76045e-15
1.32296e-14
5.36159e-14
7.99301e-14
1.58458e-13
4.62478e-13
5.22665e-13
2.129e-12
1.4817e-11
1.96261e-09
1.82865e-09
1.1261e-10
1.25231e-17
3.9e-10
7.18488e-11
5.48062e-12
3.68366e-11
4.33619e-19
2.53789e-17
2.53356e-16
1.64787e-15
4.73225e-15
1.50672e-14
9.81082e-14
3.69814e-13
2.79309e-13
7.98453e-12
1.17638e-10
1.34018e-10
1.87903e-15
1.25231e-17
6.07038e-18
2.90395e-10
1.19908e-10
5.45916e-12
8.14325e-12
6.79727e-20
2.8536e-18
2.43697e-17
1.33885e-16
3.45066e-16
8.25794e-15
7.14259e-14
1.64035e-13
7.63688e-14
1.39659e-11
1.38213e-10
1.53777e-11
1.22465e-13
8.16226e-17
3.03581e-18
1.41911e-10
9.66064e-11
4.51242e-12
8.91513e-13
1.38287e-20
3.20551e-19
4.58815e-18
1.67652e-17
7.89524e-17
5.77473e-15
2.59918e-14
3.43899e-14
8.09277e-15
1.46012e-11
7.93893e-11
2.20736e-11
4.40036e-13
3.09797e-17
1.7068e-19
3.87951e-11
2.41477e-11
1.17696e-12
4.57897e-14
4.25666e-21
9.94214e-20
1.86586e-18
5.0448e-18
3.74529e-17
1.4713e-15
4.92282e-15
3.74867e-15
0
1.32585e-11
7.14771e-12
1.44387e-12
3.58965e-14
3.08947e-18
1.47227e-21
7.08346e-12
3.19764e-12
1.10807e-13
1.0841e-18
1.54449e-21
3.49809e-20
4.92538e-19
9.3225e-19
1.1961e-17
1.85743e-16
3.56634e-16
1.92778e-16
-5.03738e-16
4.20386e-12
1.59424e-12
1.00166e-13
2.06887e-16
1.39455e-21
7.77221e-23
8.60878e-13
2.93736e-13
5.86911e-15
2.07305e-20
4.71104e-22
8.05019e-21
5.17365e-20
7.38264e-20
2.2871e-18
1.69884e-17
1.31947e-17
3.66914e-18
-3.59584e-16
3.6957e-13
2.03752e-13
1.73511e-14
3.78768e-17
-3.78511e-29
-1.0316e-35
5.73379e-14
1.72947e-14
2.21257e-16
2.4073e-22
9.09068e-23
9.36565e-22
2.03091e-21
2.67937e-21
2.5309e-19
1.93036e-19
7.13742e-20
3.79423e-21
-5.71257e-17
-3.60698e-17
-1.04824e-17
-1.83833e-18
-2.19249e-19
-1.91922e-20
-1.30137e-21
1.39187e-15
4.15804e-16
4.14586e-18
6.57435e-25
5.08357e-24
1.35573e-23
6.12745e-24
6.06155e-24
1.4169e-22
2.20975e-23
2.07728e-25
-8.81161e-22
-1.3042e-21
-5.14999e-22
-1.1801e-22
-1.94155e-23
-2.49043e-24
-2.58486e-25
-2.21107e-26
-1.55329e-27
-9.3346e-29
-5.34383e-30
-1.45124e-31
)
;

boundaryField
{
    leftWall
    {
        type            zeroGradient;
    }
    rightWall
    {
        type            zeroGradient;
    }
    lowerWall
    {
        type            zeroGradient;
    }
    atmosphere
    {
        type            inletOutlet;
        inletValue      uniform 0;
        value           nonuniform List<scalar> 
46
(
6.31532e-26
9.76934e-24
4.19319e-23
5.00351e-23
6.49516e-23
2.74711e-22
1.85993e-21
9.74103e-21
1.83884e-20
5.2753e-21
9.23811e-22
1.16904e-22
1.11856e-23
9.95279e-25
6.86534e-26
3.66314e-27
1.5303e-28
5.40291e-30
9.27804e-31
9.27804e-31
1.35398e-29
5.80422e-28
3.79962e-27
0
0
0
0
0
0
0
0
0
0
0
0
0
0
0
0
0
0
0
0
0
0
0
)
;
    }
    defaultFaces
    {
        type            empty;
    }
}


// ************************************************************************* //
