/*--------------------------------*- C++ -*----------------------------------*\
| =========                 |                                                 |
| \\      /  F ield         | OpenFOAM: The Open Source CFD Toolbox           |
|  \\    /   O peration     | Version:  5.x                                   |
|   \\  /    A nd           | Web:      www.OpenFOAM.org                      |
|    \\/     M anipulation  |                                                 |
\*---------------------------------------------------------------------------*/
FoamFile
{
    version     2.0;
    format      ascii;
    class       surfaceScalarField;
    location    "1";
    object      alphaPhi10;
}
// * * * * * * * * * * * * * * * * * * * * * * * * * * * * * * * * * * * * * //

dimensions      [0 3 -1 0 0 0 0];

internalField   nonuniform List<scalar> 
4432
(
5.36298e-06
-5.36298e-06
6.63709e-06
-1.27412e-06
3.74369e-06
2.8934e-06
3.82741e-07
3.36095e-06
6.93776e-07
-3.11036e-07
3.73736e-06
-3.04358e-06
5.76297e-06
-2.02562e-06
5.45654e-06
3.06436e-07
3.03993e-06
2.41661e-06
-1.16325e-06
4.20318e-06
-6.56947e-06
5.40623e-06
-1.20674e-05
5.49789e-06
-1.59272e-05
3.85986e-06
-1.82555e-05
2.32827e-06
-2.2512e-05
4.89404e-06
-3.00977e-05
8.45355e-06
-3.85767e-05
6.45791e-06
-3.5674e-05
-2.90267e-06
-2.78932e-05
-7.69527e-06
-1.97924e-05
-7.90524e-06
-1.21402e-05
-7.78391e-06
-4.54539e-06
-7.60916e-06
-4.54538e-06
-8.29611e-08
-5.28002e-06
-1.61734e-06
2.6025e-07
-3.71099e-06
4.98704e-06
-3.67644e-06
3.32641e-06
-8.45291e-07
-3.14218e-06
2.98453e-06
-6.87339e-06
5.38916e-06
-4.43025e-06
5.49062e-06
2.04979e-07
3.33447e-06
4.57276e-06
-8.17011e-07
8.35467e-06
-6.48371e-06
1.10729e-05
-1.28329e-05
1.18471e-05
-1.93579e-05
1.04554e-05
-2.55213e-05
9.55396e-06
-3.31743e-05
1.24622e-05
-3.79377e-05
1.31234e-05
-3.58053e-05
3.16187e-06
-2.81568e-05
-1.05113e-05
-2.10968e-05
-1.49849e-05
-1.48309e-05
-1.44013e-05
-8.9104e-06
-1.39947e-05
-3.08703e-06
-1.34325e-05
-7.63241e-06
-2.45061e-06
-2.82941e-06
-4.98404e-06
2.79369e-06
-5.95961e-06
5.96261e-06
-4.73579e-06
2.1026e-06
-1.67658e-06
-6.20139e-06
2.24045e-06
-1.07904e-05
4.96615e-06
-7.15596e-06
5.42108e-06
-2.49948e-07
3.60055e-06
6.39329e-06
-1.74054e-07
1.21293e-05
-5.35453e-06
1.62534e-05
-1.13595e-05
1.78521e-05
-1.82789e-05
1.73988e-05
-2.46575e-05
1.75927e-05
-3.04532e-05
1.81868e-05
-3.07501e-05
1.33451e-05
-2.66747e-05
-2.01541e-06
-2.14858e-05
-1.61137e-05
-1.6816e-05
-1.97212e-05
-1.19085e-05
-1.95586e-05
-6.65058e-06
-1.94267e-05
-2.04237e-06
-1.80428e-05
-9.67478e-06
-2.24245e-06
-5.86969e-07
-4.22196e-06
4.77319e-06
-4.76723e-06
6.50788e-06
-3.80533e-06
1.1407e-06
-9.34301e-07
-9.07242e-06
2.63277e-06
-1.43575e-05
4.93354e-06
-9.45673e-06
5.35419e-06
-6.70597e-07
3.62679e-06
8.12069e-06
-1.82854e-07
1.59389e-05
-5.45317e-06
2.15237e-05
-1.13321e-05
2.37311e-05
-1.73238e-05
2.33942e-05
-2.21828e-05
2.31622e-05
-2.45021e-05
2.18519e-05
-2.3305e-05
1.2187e-05
-2.06528e-05
-4.94173e-06
-1.90272e-05
-1.77986e-05
-1.64034e-05
-2.2345e-05
-1.13547e-05
-2.46072e-05
-5.65255e-06
-2.51288e-05
-1.36792e-06
-2.23274e-05
-1.10428e-05
-5.81985e-07
-4.98351e-09
-1.39344e-06
5.58466e-06
-1.69863e-06
6.81307e-06
-8.81896e-07
3.23975e-07
1.88752e-06
-1.18418e-05
4.36828e-06
-1.68382e-05
5.67714e-06
-1.07656e-05
5.79025e-06
-7.83703e-07
3.99484e-06
9.91611e-06
-4.26397e-08
1.99764e-05
-5.78144e-06
2.72625e-05
-1.20146e-05
2.99642e-05
-1.74792e-05
2.88608e-05
-2.07631e-05
2.64474e-05
-2.09254e-05
2.20152e-05
-1.94429e-05
1.07045e-05
-1.92424e-05
-5.14224e-06
-1.95388e-05
-1.75021e-05
-1.67631e-05
-2.51207e-05
-1.0719e-05
-3.06513e-05
-4.01555e-06
-3.18322e-05
-2.88643e-07
-2.60543e-05
-1.13314e-05
1.98975e-06
-1.99472e-06
2.61909e-06
4.95532e-06
2.58797e-06
6.84418e-06
3.69855e-06
-7.86614e-07
6.22082e-06
-1.43642e-05
7.37191e-06
-1.79779e-05
7.44287e-06
-1.08351e-05
7.45257e-06
-7.93391e-07
5.81762e-06
1.15511e-05
1.68441e-06
2.41096e-05
-4.69457e-06
3.36415e-05
-1.17714e-05
3.70411e-05
-1.78055e-05
3.48949e-05
-2.09763e-05
2.96182e-05
-2.09669e-05
2.20059e-05
-2.03317e-05
1.00693e-05
-2.08839e-05
-4.59007e-06
-2.06094e-05
-1.77766e-05
-1.71906e-05
-2.85393e-05
-1.07064e-05
-3.71352e-05
-2.82011e-06
-3.97183e-05
8.5364e-07
-2.97279e-05
-1.04778e-05
5.26429e-06
-7.25901e-06
7.60162e-06
2.61802e-06
7.78909e-06
6.65671e-06
9.17527e-06
-2.1728e-06
1.1774e-05
-1.69626e-05
1.12805e-05
-1.74953e-05
1.05658e-05
-1.01063e-05
1.11001e-05
-1.32576e-06
9.5996e-06
1.30515e-05
4.88993e-06
2.88193e-05
-2.3648e-06
4.08962e-05
-1.03779e-05
4.50542e-05
-1.74718e-05
4.19889e-05
-2.16415e-05
3.37879e-05
-2.26134e-05
2.29778e-05
-2.25565e-05
1.00125e-05
-2.28558e-05
-4.29084e-06
-2.25943e-05
-1.80379e-05
-2.06889e-05
-3.04436e-05
-1.46651e-05
-4.31558e-05
-4.45057e-06
-4.99295e-05
1.42959e-06
-3.52831e-05
-9.02708e-06
8.96437e-06
-1.62234e-05
1.26522e-05
-1.0692e-06
1.32518e-05
6.05707e-06
1.46903e-05
-3.61127e-06
1.59948e-05
-1.82672e-05
1.41638e-05
-1.5678e-05
1.33952e-05
-9.34967e-06
1.36451e-05
-1.57667e-06
1.16493e-05
1.50473e-05
6.1089e-06
3.43597e-05
-1.76971e-06
4.87748e-05
-1.03192e-05
5.36036e-05
-1.80916e-05
4.97613e-05
-2.32365e-05
3.89327e-05
-2.50636e-05
2.48049e-05
-2.51516e-05
1.01006e-05
-2.56062e-05
-3.83606e-06
-2.74114e-05
-1.62304e-05
-2.81195e-05
-2.97216e-05
-2.23697e-05
-4.88705e-05
-9.19405e-06
-6.30905e-05
8.39053e-07
-4.56152e-05
-8.1769e-06
-1.96363e-06
1.95065e-06
4.18588e-06
-6.10218e-06
2.34945e-05
-2.01393e-05
3.27353e-05
-1.44123e-05
4.47676e-05
-4.97211e-06
4.63156e-05
5.27716e-06
3.05107e-05
1.58213e-05
1.7749e-05
1.27617e-05
1.0964e-05
5.85938e-06
-6.66977e-07
9.78441e-06
-1.15549e-05
1.0888e-05
-1.92787e-05
7.72375e-06
-2.18479e-05
2.56925e-06
-1.63116e-05
-5.16074e-06
-7.17622e-06
-8.3125e-06
3.08525e-06
-1.05036e-05
9.16287e-06
-8.50017e-06
6.05206e-06
2.52891e-06
7.47181e-06
-1.1403e-06
3.1415e-06
9.81074e-06
-1.58396e-05
2.52357e-05
-3.72539e-05
3.90528e-05
-3.2152e-05
4.78244e-05
-1.70005e-05
5.07473e-05
1.17784e-06
4.39663e-05
2.14481e-05
3.60681e-05
2.40062e-05
2.61072e-05
1.61027e-05
4.89691e-06
2.08056e-05
-1.07567e-05
2.11097e-05
-1.28641e-05
9.83146e-06
-7.46566e-06
-5.19413e-07
-4.99361e-06
-5.09302e-06
-6.00046e-06
-7.52195e-06
-2.99055e-06
-1.47788e-05
6.28199e-06
-1.77212e-05
1.07619e-05
-1.14774e-06
1.59899e-05
1.56373e-06
1.57656e-06
1.31099e-05
-2.79994e-05
2.15414e-05
-4.62191e-05
2.68474e-05
-3.72854e-05
3.36593e-05
-2.48881e-05
3.96429e-05
-7.11985e-06
3.92425e-05
2.3578e-05
3.41636e-05
3.19497e-05
2.36872e-05
2.66715e-05
5.91367e-06
1.48601e-05
1.42189e-06
1.77491e-05
-1.33206e-07
8.38104e-06
-5.80522e-07
-1.24723e-07
-6.78781e-06
1.00261e-06
-2.1048e-05
3.30946e-06
-2.14367e-05
-1.04806e-05
-7.40098e-06
-1.87982e-05
1.81371e-06
-9.52672e-06
1.26407e-05
1.34793e-06
2.28635e-07
1.26113e-05
-4.10957e-05
1.63874e-05
-4.98225e-05
1.15843e-05
-3.22954e-05
1.21144e-05
-2.52168e-05
2.28431e-05
-1.75955e-05
2.69166e-05
1.98203e-05
2.28994e-05
3.60758e-05
1.13984e-05
3.82797e-05
4.35871e-06
1.99858e-05
6.63078e-06
1.32139e-05
2.64653e-06
9.67931e-06
-8.634e-06
1.17029e-05
-2.12836e-05
1.60214e-05
-2.35852e-05
8.17368e-06
-1.59264e-05
-2.11737e-06
-1.24211e-05
-1.61745e-05
-2.83146e-06
-2.31544e-05
4.49167e-06
3.03102e-06
-2.40855e-06
1.48939e-05
-5.43519e-05
1.71153e-05
-5.22441e-05
6.78724e-06
-2.13049e-05
-3.40565e-06
-9.6132e-06
2.15953e-06
-2.24982e-05
9.34308e-06
1.27456e-05
4.74276e-06
4.07849e-05
-2.10716e-06
2.38584e-05
8.38911e-07
1.55374e-05
4.54552e-06
1.94918e-05
-4.56243e-06
2.4524e-05
-1.83327e-05
2.51152e-05
-8.28257e-06
4.4487e-06
3.03903e-06
-8.9483e-06
3.81711e-06
-1.65425e-06
-4.40569e-06
1.49271e-07
-7.95993e-06
-1.16176e-05
-9.72578e-06
7.71883e-06
-8.8254e-06
1.9062e-05
-6.49459e-05
2.32444e-05
-5.65719e-05
1.47821e-05
-1.64727e-05
-1.80368e-06
1.80226e-06
-1.08891e-05
-1.08787e-05
-9.80075e-06
1.17645e-05
-1.21329e-05
4.08933e-05
-1.1937e-05
2.84072e-05
-7.60575e-06
2.07027e-05
-1.13321e-05
2.36733e-05
-1.56267e-05
2.92726e-05
4.14463e-06
6.25345e-06
1.63686e-05
-1.30437e-05
1.45451e-05
-9.75742e-06
1.25693e-05
-2.68667e-06
5.91247e-06
3.70762e-06
-1.89961e-06
9.05847e-06
-1.16254e-05
1.34061e-05
-2.63674e-05
2.33211e-05
-7.45402e-05
2.65205e-05
-5.98051e-05
2.07148e-05
-1.49066e-05
1.77778e-07
1.0457e-05
-2.09192e-05
4.83064e-07
-2.90844e-05
1.05112e-05
-2.56191e-05
3.23561e-05
-2.83931e-05
2.71384e-05
-2.63575e-05
1.9042e-05
-2.15207e-05
1.92798e-05
1.45178e-06
6.75371e-06
1.28366e-05
-1.14566e-05
8.9515e-06
-1.1785e-05
9.24853e-06
-1.36338e-05
1.37799e-05
-1.05462e-05
1.0903e-05
3.48611e-06
1.57436e-05
1.10564e-05
1.34045e-05
2.01345e-05
-4.65018e-05
2.43592e-05
-7.87539e-05
1.47165e-05
-4.03579e-05
3.58209e-06
-1.71784e-06
-2.97461e-06
7.2524e-06
-1.12523e-05
3.43251e-06
-3.31159e-05
4.51043e-06
-4.31133e-05
2.1475e-05
-3.72603e-05
1.98871e-05
-2.4872e-05
7.86566e-06
-2.04394e-06
-2.104e-06
7.25037e-06
-6.97008e-06
1.03645e-05
-1.60234e-05
1.29565e-05
-1.63174e-05
2.02047e-05
-2.27431e-05
2.04796e-05
-2.05751e-05
1.99988e-05
7.89844e-07
1.58425e-05
8.28462e-06
1.12314e-05
3.26142e-05
-4.79728e-05
4.66248e-05
-1.46571e-05
4.59887e-05
6.69327e-06
4.38595e-05
-1.48206e-06
3.72929e-05
-1.16631e-05
2.94907e-05
-7.85634e-06
2.71144e-05
-6.95393e-06
2.42585e-05
-1.43308e-06
1.4015e-05
8.27916e-06
7.43866e-06
7.80521e-06
-6.42524e-06
1.73272e-05
-2.67347e-05
3.04012e-05
-4.70895e-05
4.00275e-05
-5.69253e-05
3.8919e-05
-5.80856e-05
2.59652e-05
-5.98468e-05
1.18622e-05
-6.7072e-05
3.39519e-06
-7.65832e-05
-4.68729e-06
-7.84359e-05
-1.91335e-05
-6.94833e-05
-4.64534e-05
-3.8554e-05
-9.31826e-05
-6.56619e-06
-7.83254e-05
-3.32419e-05
1.84448e-05
3.65223e-05
-8.54598e-05
5.83698e-05
-3.57998e-05
6.16671e-05
3.40842e-06
5.65389e-05
3.64875e-06
4.24156e-05
2.13487e-06
2.58587e-05
8.71996e-06
1.76743e-05
-2.05826e-06
7.8777e-07
-1.99303e-07
-1.01854e-06
1.07257e-06
-4.33267e-06
8.83541e-07
-1.13238e-05
2.02968e-06
-1.70692e-05
1.55386e-06
-3.04989e-05
9.22157e-06
-7.50992e-05
1.19098e-05
-9.52874e-05
8.15112e-06
-9.35267e-05
4.2078e-06
-7.8769e-05
6.98211e-07
-4.58933e-05
-2.03601e-06
-3.05112e-05
-2.2949e-06
-3.92596e-05
-1.20768e-05
-5.70286e-05
-6.55128e-05
-3.26537e-05
-0.000102665
-4.91467e-05
-1.6726e-05
2.45931e-05
-0.000110535
3.53719e-05
-4.73032e-05
3.8241e-05
5.24788e-07
2.48877e-05
1.70082e-05
2.9955e-06
2.40124e-05
1.07929e-05
-5.35596e-07
-3.83106e-07
2.09558e-06
-2.12147e-06
9.0049e-07
-3.36312e-06
1.61111e-06
-5.6662e-06
2.03915e-06
-9.30781e-06
2.68685e-06
-3.05296e-05
3.67463e-06
-0.000142681
4.82726e-06
-0.000134126
-3.12166e-06
-0.000105301
-8.90027e-06
-4.27259e-05
-8.41194e-06
-1.12206e-05
-7.69474e-06
-4.33491e-06
-5.74108e-06
-3.82017e-06
-4.89956e-06
-1.10096e-05
-6.9697e-06
-4.84065e-05
-4.86267e-05
-4.64189e-05
-0.000104615
-5.87023e-05
-3.68278e-05
-1.23042e-05
-9.82312e-05
-3.87565e-05
-2.06647e-05
-5.51897e-05
1.77053e-05
-2.4262e-05
8.35951e-06
-1.33583e-06
1.61294e-06
-2.41361e-06
7.17797e-07
-2.31242e-06
1.62182e-06
-3.55854e-06
1.58471e-06
-4.61793e-06
2.03166e-06
-6.12157e-06
2.57693e-06
-8.03535e-06
3.14443e-06
-2.83057e-05
3.21809e-06
-3.89922e-05
-3.81204e-06
-4.06279e-05
-2.24489e-05
-3.67916e-05
-2.8359e-05
-2.44958e-05
-2.76779e-05
-1.35433e-05
-2.14514e-05
-6.20994e-06
-1.36607e-05
-2.6836e-06
-1.06054e-05
-4.55796e-06
-1.20463e-05
-4.47093e-05
-7.73517e-05
-6.63376e-05
-8.2901e-05
-4.9372e-05
-7.5458e-05
-7.5662e-05
-2.25691e-05
-0.000105062
4.1868e-05
-1.75659e-05
6.41947e-06
-4.63447e-06
-6.86631e-07
-2.48487e-06
1.69663e-07
-3.19497e-06
1.2036e-06
-3.44023e-06
1.59797e-06
-4.02762e-06
1.77063e-06
-4.49061e-06
1.93274e-06
-5.14436e-06
2.51081e-06
-6.12632e-06
2.94693e-06
-5.85326e-06
1.17538e-06
-4.29084e-05
-1.40604e-05
-7.64743e-05
-4.17169e-05
-8.37335e-05
-5.27322e-05
-8.32682e-05
-6.47756e-05
-6.57344e-05
-7.21124e-05
-3.63052e-05
-8.82298e-05
-2.1017e-05
-8.26321e-05
-4.21889e-05
-8.11983e-05
-7.58338e-05
-7.11312e-05
-0.000110258
-4.78994e-05
-3.08395e-06
-5.72877e-05
-8.26979e-05
6.33692e-05
-3.18449e-05
4.69843e-05
-2.56778e-05
3.42631e-06
-2.44048e-05
6.53296e-06
-2.66252e-05
1.17103e-05
-9.55826e-06
1.10145e-05
-3.57776e-06
5.92028e-06
-3.81743e-06
1.45737e-06
-4.61141e-06
2.20151e-06
-4.51009e-06
9.75599e-07
-4.05414e-06
1.28297e-06
-8.02391e-06
1.23808e-06
-3.9641e-05
-1.76652e-05
-6.47932e-05
-8.2346e-07
-6.91301e-05
-4.5602e-06
-0.000101046
-1.63581e-05
-0.000121802
-6.21388e-05
-0.000118262
-0.000112234
-0.000101482
-0.000112086
-9.10369e-05
-9.00389e-05
-9.36781e-05
-5.74541e-05
-6.59072e-05
-1.40882e-05
7.10606e-06
-7.4163e-06
-5.39742e-05
0.00012617
-2.01908e-05
5.53995e-05
-2.26131e-05
5.39045e-06
-2.45865e-05
5.2533e-06
-1.17548e-05
8.85804e-06
-9.75472e-07
4.93568e-06
-4.4424e-05
1.8463e-05
-7.65043e-05
1.78161e-05
-7.23533e-05
1.13291e-05
-6.40496e-05
7.43214e-06
-5.40711e-05
6.07655e-06
-3.89252e-05
8.62143e-07
-5.84283e-07
-2.1592e-08
-1.37873e-06
-3.1608e-08
-5.71525e-06
-2.34858e-07
-2.07804e-05
-1.35255e-06
-5.00265e-05
-6.8448e-06
-0.000122924
-3.59752e-05
-0.000126609
-0.000105617
-0.000112837
-9.67556e-05
-0.000105228
-4.89642e-05
-8.221e-06
1.46952e-06
1.55988e-06
-2.29193e-06
-2.80739e-05
0.00015735
-8.22517e-06
5.45307e-05
-6.84907e-06
3.67978e-06
-7.54145e-06
9.32491e-07
-1.91511e-06
1.66761e-07
-7.3572e-06
1.39149e-06
-4.21642e-05
7.97427e-06
-5.69174e-05
4.07456e-06
-2.72286e-05
3.34727e-07
-8.9956e-06
3.89191e-08
-1.35708e-06
1.61517e-08
-5.86052e-09
-7.64357e-10
-2.68009e-08
-8.02091e-10
-5.4007e-08
-5.12631e-09
-2.55873e-07
-3.47188e-08
-1.39822e-06
-2.21368e-07
-7.00882e-06
-1.29373e-06
-3.85053e-05
-5.13784e-06
-0.000124565
-4.93016e-05
-0.000125378
-9.31576e-05
-7.06647e-05
-4.81381e-05
-1.97624e-06
2.49399e-06
7.15229e-07
-1.09981e-06
-1.15233e-05
0.000167931
-2.90859e-06
4.29802e-05
-1.25733e-06
1.81735e-06
-9.76066e-07
2.91892e-07
-1.28072e-06
1.06492e-07
-5.16818e-06
4.66173e-07
-4.34015e-06
7.81904e-08
-4.70924e-07
5.24566e-08
-5.5278e-08
4.51431e-09
-1.63567e-08
-1.05774e-12
-1.97175e-10
-7.51951e-12
-9.48186e-10
-1.15335e-11
-1.64493e-09
-9.43346e-11
-5.97462e-09
-7.21248e-10
-3.49134e-08
-5.65792e-09
-2.18298e-07
-4.24226e-08
-1.26192e-06
-2.7885e-07
-5.20619e-06
-1.4215e-06
-6.81495e-05
-8.66281e-06
-0.000110679
-6.67753e-05
-5.04062e-05
-6.17917e-05
-8.0607e-07
1.02242e-06
2.84089e-07
-3.95887e-07
-3.28824e-06
0.000175525
-1.05421e-06
2.6563e-05
-1.9911e-07
8.30376e-07
-1.30416e-07
8.87202e-08
-1.53349e-07
3.47327e-08
-1.422e-07
3.05097e-08
-7.57079e-08
2.4324e-09
-4.52825e-09
-5.45469e-09
-2.55387e-12
-1.02632e-11
-2.2452e-12
2.34632e-14
-9.43034e-12
-1.36012e-13
-1.92489e-11
-1.09273e-12
-1.07049e-10
-5.23291e-12
-7.75897e-10
-4.46272e-11
-5.935e-09
-4.48683e-10
-4.4006e-08
-4.56813e-09
-2.83626e-07
-3.7906e-08
-1.4689e-06
-2.38903e-07
-8.83072e-06
-1.28408e-06
-7.1632e-05
-1.13627e-05
-9.30564e-05
-4.88544e-05
-1.1413e-05
-1.6837e-05
-8.33072e-06
-5.96651e-07
1.18375e-06
0.000170796
-2.94239e-07
1.82465e-05
-1.17394e-08
4.70502e-07
-8.09065e-09
3.40119e-08
-5.27542e-09
8.02484e-09
1.41791e-09
4.64851e-09
3.54077e-09
-1.21324e-10
9.14804e-12
-9.33816e-10
-2.09764e-12
6.06337e-12
-5.85274e-13
2.64115e-13
-6.22539e-13
6.30464e-14
-6.38896e-13
-1.84621e-13
-3.86471e-12
-1.06687e-12
-4.18014e-11
-5.2967e-12
-4.91836e-10
-1.10101e-11
-4.90653e-09
-1.6217e-10
-4.0572e-08
-2.21907e-09
-2.60326e-07
-1.93839e-08
-1.43307e-06
-1.3467e-07
-1.19773e-05
-8.45136e-07
-5.57002e-05
-7.48389e-06
-4.10804e-05
-8.32431e-06
-1.38036e-05
-1.27718e-05
3.5809e-06
9.56924e-05
-1.71535e-07
1.40673e-05
-5.00222e-12
2.56954e-07
4.08026e-10
1.28796e-08
5.34203e-10
2.04378e-09
1.09366e-09
7.03723e-10
5.22233e-10
-4.50657e-11
-2.70428e-11
-2.32588e-11
-7.48972e-13
9.78036e-12
1.23885e-15
3.26122e-13
-4.399e-14
1.27561e-13
-1.08752e-13
-5.70293e-14
-3.79505e-13
-1.37356e-12
-7.23127e-13
-9.17093e-12
-1.00291e-11
-5.7839e-12
-1.69883e-10
-6.30001e-12
-2.29627e-09
-8.9065e-11
-2.15983e-08
-7.20091e-10
-1.47255e-07
-8.38687e-09
-9.30074e-07
-5.77871e-08
-8.24357e-06
-1.60345e-07
-2.27687e-05
-4.57637e-07
-2.67753e-06
-2.0107e-05
-1.18178e-08
4.24338e-06
-1.29769e-07
7.52959e-06
-1.10241e-09
1.09795e-07
3.74141e-11
5.76859e-09
9.57374e-11
5.91324e-10
1.24612e-10
1.09027e-10
2.50964e-11
-6.77928e-12
-1.08207e-12
1.68916e-12
-1.49934e-15
1.02254e-12
-4.38702e-14
2.75377e-13
2.63249e-16
1.25477e-13
-8.886e-14
-9.60623e-13
2.1351e-13
-5.3588e-12
4.46135e-13
-8.61612e-12
-2.8256e-13
-6.11079e-12
-2.78669e-12
-5.73174e-12
-2.78683e-11
-6.31079e-11
-6.07892e-10
-1.4623e-10
-3.91861e-09
-4.9954e-09
-1.20109e-08
-4.99718e-08
-6.30277e-08
-1.06944e-07
-4.41417e-07
-6.86073e-08
-1.43078e-07
-2.97084e-06
-5.93839e-07
6.073e-05
-7.72051e-08
2.6118e-06
-1.98137e-09
2.8671e-08
-9.33595e-11
2.49175e-09
5.92242e-12
1.65201e-10
5.64244e-12
1.79192e-11
-9.07057e-13
3.52813e-12
-4.74929e-13
1.9319e-12
-2.15302e-13
6.8324e-13
-3.01523e-13
2.77951e-13
-3.62603e-13
1.56251e-13
-2.92533e-12
7.68483e-14
-2.99052e-12
-4.18393e-12
-1.46829e-12
-9.38159e-12
-6.45944e-15
-1.21953e-11
-3.1463e-14
-8.67796e-12
4.91564e-12
-7.45563e-13
-1.46068e-10
-6.87329e-12
-2.24195e-09
-1.98953e-09
-2.67683e-08
-8.21972e-09
-4.51251e-08
-6.22783e-08
-2.82589e-08
-7.81226e-08
-1.60859e-07
-1.36937e-08
-1.37708e-06
0.000179066
-8.2004e-09
1.46581e-06
-3.26125e-10
1.89486e-08
-1.01595e-11
1.93941e-09
-1.76627e-13
8.06569e-11
-2.13806e-12
7.68624e-12
-9.76451e-13
4.09955e-12
-4.29228e-13
1.3462e-12
-4.49709e-13
6.20349e-13
-5.324e-13
2.76995e-13
-6.20844e-13
1.61029e-13
-7.74067e-13
1.19096e-13
-1.93189e-12
2.5263e-13
-2.29761e-12
-3.03065e-12
-2.44553e-12
-1.306e-11
-2.971e-14
-9.88816e-12
2.57507e-14
-4.26299e-12
-1.21743e-11
-6.83513e-13
5.93859e-11
-5.07519e-13
-3.36348e-09
-4.58066e-14
-3.63423e-08
-2.40124e-09
-5.96997e-08
-5.32823e-08
-1.17079e-07
-6.14023e-08
2.30104e-06
0.000168747
7.49585e-08
4.57054e-06
1.97672e-10
9.43865e-08
2.40388e-12
2.08727e-09
-2.5083e-13
7.07326e-11
-1.14093e-12
6.96569e-12
-6.98705e-13
4.34523e-12
-7.67122e-13
1.59345e-12
-1.81018e-12
1.62506e-12
-8.1616e-12
6.54473e-12
-3.09492e-11
2.02341e-11
-8.6731e-12
-2.23381e-11
-7.8532e-13
-1.09308e-11
-1.57389e-12
-3.45845e-12
-8.31389e-13
-1.42881e-12
-2.90979e-13
-1.90643e-13
3.67673e-14
-8.30765e-13
7.23576e-14
-7.01718e-13
5.67635e-15
-1.66832e-13
1.98095e-15
-2.8008e-14
-2.40109e-09
-1.58019e-14
-1.20314e-08
-3.83488e-15
-4.56114e-08
-3.38697e-08
3.97837e-06
7.17484e-05
7.18799e-08
8.6682e-06
5.95501e-09
1.61721e-07
1.15641e-10
8.06029e-09
-4.61676e-13
1.83189e-10
-9.97713e-13
1.01964e-11
-1.58354e-12
6.43621e-12
-8.15463e-12
8.83174e-12
-9.5092e-11
8.88444e-11
-5.75112e-10
4.87778e-10
-7.23863e-10
1.76491e-10
-1.65023e-10
-5.91918e-10
-1.56826e-11
-1.64692e-10
-5.43641e-13
-1.97312e-11
-1.24367e-14
-1.96288e-12
-3.27572e-15
-2.1449e-13
1.24969e-14
-6.6983e-14
7.78606e-14
-4.23293e-14
6.74569e-15
-5.96821e-14
7.0585e-15
-2.07942e-14
1.12763e-15
-6.70797e-15
5.26651e-16
-5.11226e-15
-9.14921e-15
4.77477e-10
1.35885e-06
1.03634e-06
-2.81163e-08
1.11146e-05
2.19623e-08
4.90684e-07
9.53094e-10
2.99643e-08
5.05691e-12
1.1176e-09
-3.18815e-11
4.44128e-11
-4.81414e-10
4.5962e-10
-9.93728e-09
9.50284e-09
-2.97734e-08
3.52567e-08
-3.06304e-08
1.19257e-08
-1.4666e-08
-1.20154e-08
-1.68041e-09
-2.0454e-08
-1.49701e-10
-1.75294e-09
-6.03813e-12
-1.64567e-10
-1.26401e-13
-7.95411e-12
1.44168e-15
-3.30669e-13
6.04082e-15
-4.72974e-14
5.93215e-15
-2.99557e-14
1.29738e-14
-2.14408e-14
5.04924e-15
-1.40241e-14
1.37558e-15
-1.06532e-14
1.41675e-15
-1.03268e-14
-8.38028e-15
6.03179e-16
7.13602e-07
3.22751e-07
1.54476e-06
7.59523e-06
9.28945e-08
2.56404e-06
8.00334e-09
1.17868e-07
3.0692e-10
8.92172e-09
-1.91507e-11
3.72294e-10
-5.18117e-10
1.45792e-09
-1.71026e-08
5.5405e-08
-2.7317e-08
4.60486e-08
-3.11243e-08
1.61467e-08
-2.85697e-08
-1.39925e-08
-1.15531e-08
-3.85725e-08
-8.56409e-10
-1.48044e-08
-2.0453e-11
-9.772e-10
-1.57689e-13
-4.45164e-11
-3.58875e-14
-1.18686e-12
5.29609e-15
-1.10031e-13
6.17355e-15
-3.19444e-14
5.41728e-15
-1.65427e-14
4.75707e-15
-9.20645e-15
5.27482e-15
-4.54663e-15
5.54986e-15
-3.38897e-15
-2.68441e-15
1.66256e-15
2.91354e-07
3.15034e-08
1.23591e-06
1.33072e-06
2.64805e-07
3.94735e-06
4.53396e-08
4.67269e-07
4.02426e-09
5.10244e-08
4.40729e-10
4.07266e-09
1.33388e-09
1.60333e-09
2.11146e-09
5.58032e-08
-3.18872e-09
5.17653e-08
-5.90497e-09
1.93369e-08
-5.91942e-09
-1.35628e-08
-2.58165e-09
-4.15242e-08
-3.62969e-11
-3.44882e-08
-8.8822e-11
-5.33513e-09
-7.30382e-12
-1.74291e-10
-5.45114e-13
-9.56979e-12
-2.20421e-14
-6.86057e-13
6.48129e-15
-7.37049e-14
4.20499e-15
-1.46849e-14
2.65339e-15
-5.84492e-15
1.69536e-15
-2.92139e-15
1.13462e-15
-1.59954e-15
-1.38447e-15
8.43123e-16
2.64337e-08
5.09121e-09
4.63133e-07
1.70391e-07
8.60289e-07
1.69766e-06
1.40886e-07
1.08594e-06
2.17656e-08
1.71331e-07
4.93679e-09
2.16185e-08
2.72022e-09
4.63001e-09
3.0229e-08
1.56172e-08
2.63248e-08
1.93483e-08
1.79738e-08
3.41921e-09
1.80307e-08
-2.21358e-09
1.33677e-08
-3.59115e-08
7.88166e-09
-4.68309e-08
-4.78155e-10
-6.76061e-09
-3.52643e-11
-6.41813e-10
-2.51402e-12
-4.45008e-11
-1.63303e-13
-3.12658e-12
-2.2509e-15
-2.58363e-13
3.32977e-15
-2.34352e-14
1.661e-15
-4.66498e-15
7.86519e-16
-1.4532e-15
5.6273e-16
-6.82274e-16
-6.33628e-16
5.16975e-16
4.53817e-09
5.43086e-10
1.34607e-07
2.94926e-08
4.4166e-07
1.70111e-07
4.4213e-07
7.73182e-07
7.66224e-08
4.70207e-07
1.9362e-08
7.86071e-08
6.58358e-09
1.82181e-08
1.05983e-08
1.12547e-08
1.21943e-08
1.0175e-08
9.9245e-09
4.30714e-09
7.2052e-09
-9.30242e-10
3.65444e-08
-2.20097e-08
1.12513e-08
-5.00627e-08
-3.94436e-10
-8.26492e-09
-3.72698e-11
-1.07695e-09
-3.83133e-12
-8.60679e-11
-3.23986e-13
-7.39688e-12
-1.83099e-14
-6.41393e-13
2.70728e-15
-5.236e-14
1.05594e-15
-4.82661e-15
4.03203e-16
-7.79043e-16
3.06498e-16
-3.97005e-16
-5.3771e-16
3.2746e-16
4.98944e-10
4.42259e-11
2.66753e-08
2.44658e-09
1.51872e-07
2.34784e-08
3.20349e-07
1.00945e-07
1.25267e-07
2.08352e-07
5.29276e-08
1.65611e-07
2.19944e-08
4.881e-08
1.23303e-08
1.77228e-08
1.1674e-08
8.9549e-09
1.08575e-08
3.70161e-09
8.53707e-09
-2.18529e-10
4.95639e-08
-1.20013e-08
1.67324e-08
-3.00373e-08
2.35001e-10
-8.18113e-09
7.52124e-12
-1.00528e-09
-2.79015e-13
-9.62308e-11
-7.39353e-14
-9.38154e-12
-2.64157e-15
-8.65812e-13
9.44625e-16
-7.32137e-14
7.54477e-16
-5.78141e-15
2.67336e-16
-6.43807e-16
2.18708e-16
-2.83605e-16
-5.80291e-16
3.84258e-16
4.20075e-11
2.53078e-12
2.28649e-09
1.43134e-10
2.03224e-08
2.56417e-09
8.30757e-08
1.32629e-08
1.42066e-07
2.55265e-08
1.05614e-07
9.86874e-08
2.88336e-08
6.27077e-08
2.24766e-08
1.90276e-08
1.64771e-08
1.20727e-08
1.34736e-08
4.82878e-09
3.71164e-08
2.88378e-09
5.03076e-08
-6.80448e-09
2.57347e-08
-1.42828e-08
6.36414e-10
-4.76243e-09
5.72117e-11
-6.09244e-10
5.19566e-12
-6.80143e-11
4.63674e-13
-7.12772e-12
4.34879e-14
-6.72396e-13
4.10789e-15
-5.67952e-14
7.59161e-16
-4.58265e-15
2.26305e-16
-4.88791e-16
1.82517e-16
-2.14584e-16
-5.21217e-16
5.19451e-16
2.52439e-12
2.08313e-14
1.41014e-10
2.16321e-12
2.44157e-09
7.36296e-11
1.33959e-08
9.75809e-10
3.17486e-08
3.67572e-09
6.09813e-08
6.39773e-09
3.14849e-08
1.39043e-08
2.29289e-08
2.00324e-08
1.94684e-08
1.31405e-08
1.94211e-08
8.11552e-09
4.78343e-08
9.87823e-09
4.27091e-08
1.61083e-09
1.56443e-08
-4.65857e-09
6.46032e-10
-8.70989e-10
7.07989e-11
-1.9648e-10
7.22928e-12
-2.46299e-11
6.69582e-13
-2.81883e-12
6.03104e-14
-2.72839e-13
5.42004e-15
-2.30067e-14
8.62599e-16
-1.94703e-15
1.84586e-16
-2.06232e-16
1.52332e-16
-1.34941e-16
-2.95056e-16
5.1769e-16
3.73544e-14
2.53928e-16
2.12145e-12
-1.1054e-14
7.27511e-11
5.11712e-14
9.55321e-10
1.73925e-11
3.96904e-09
2.68178e-10
7.52449e-09
1.55303e-09
1.57672e-08
5.9883e-09
2.20082e-08
1.65544e-08
4.7796e-08
2.5081e-08
4.69595e-08
2.32689e-08
4.32321e-08
1.53603e-08
4.09253e-08
9.09858e-09
3.49929e-09
4.6055e-10
2.88461e-10
-2.83828e-11
3.44167e-11
-2.23731e-11
3.73402e-12
-3.92251e-12
3.52179e-13
-4.98145e-13
3.23495e-14
-4.5944e-14
2.70445e-15
-3.74912e-15
2.5464e-16
-3.15564e-16
9.27687e-17
-5.1876e-17
1.09199e-16
-5.66218e-17
-8.52851e-17
2.22075e-16
-4.01794e-17
6.06819e-16
-1.21458e-14
-1.953e-15
-1.59316e-13
-7.66613e-15
1.39845e-11
-2.89891e-13
2.56094e-10
3.13447e-12
1.74127e-09
-1.17277e-10
7.78176e-09
1.7377e-09
3.26963e-08
1.96e-08
3.57877e-08
2.58886e-08
3.63863e-08
2.43802e-08
3.51169e-08
1.92938e-08
6.24629e-09
2.46891e-09
1.99052e-10
2.48726e-11
4.48476e-11
4.71764e-12
6.27198e-12
-3.55922e-13
7.19731e-13
-3.36126e-13
6.76934e-14
-4.99189e-14
5.84265e-15
-4.21066e-15
5.23057e-16
-3.69392e-16
5.90804e-17
-3.1873e-17
3.62464e-17
-9.12977e-18
4.38965e-17
-1.28387e-17
-1.32273e-17
5.58569e-17
-1.96027e-16
4.02998e-16
-8.5455e-16
2.55917e-15
-2.03611e-14
3.0011e-15
-4.12038e-13
2.82179e-14
-8.7933e-14
1.03939e-12
1.97435e-10
4.73681e-11
4.70069e-09
1.46062e-09
1.16582e-08
7.68152e-09
2.03956e-08
2.26886e-08
1.39946e-08
1.12912e-08
3.03618e-09
1.0416e-09
9.53612e-11
-1.61009e-10
1.61559e-11
-7.1006e-12
3.28396e-12
6.42673e-14
6.56847e-13
3.08458e-14
8.11519e-14
-6.5462e-15
7.39437e-15
-2.31168e-15
7.93912e-16
-2.76018e-16
6.66145e-17
-2.81338e-17
9.73555e-18
-2.43016e-18
7.39074e-18
-6.16743e-19
9.01621e-18
-9.26012e-19
-9.74764e-19
7.55968e-18
-2.39663e-16
1.28715e-16
-9.94831e-16
2.54117e-15
-1.06904e-15
2.27508e-15
1.3073e-14
1.74567e-14
2.63996e-12
3.85178e-13
2.7057e-12
3.14337e-11
2.2867e-11
7.14103e-11
1.00606e-09
8.99209e-11
2.74369e-09
2.74992e-10
1.3706e-09
1.87053e-11
2.31782e-10
-7.50928e-11
2.46978e-11
-1.5755e-11
2.72295e-12
-1.5596e-12
3.25621e-13
-7.7709e-14
4.79432e-14
2.90305e-15
5.5312e-15
4.57528e-16
9.94763e-16
-6.02679e-17
9.62963e-17
-1.5128e-17
5.96606e-18
-1.74498e-18
7.38894e-19
-1.50996e-19
5.42188e-19
-1.75812e-20
6.85175e-19
-2.38905e-20
-3.87839e-20
6.09512e-19
-7.30141e-17
1.87642e-17
-3.99448e-16
7.99007e-16
-6.96571e-16
1.40008e-15
3.07346e-14
3.68142e-15
-2.72431e-13
5.99245e-14
-1.41652e-12
-1.23237e-13
-7.32439e-12
5.7335e-13
4.7314e-11
8.25722e-12
1.95746e-10
2.21607e-11
1.26962e-10
4.11571e-12
2.52852e-11
-5.0884e-12
3.41173e-12
-1.37204e-12
3.59484e-13
-1.8275e-13
4.04334e-14
-1.03876e-14
6.69208e-15
1.47334e-15
1.21841e-15
1.90757e-16
1.09944e-16
4.87986e-18
7.27857e-18
-5.49275e-19
4.51791e-19
-8.6264e-20
3.1717e-20
-7.92443e-21
1.55174e-20
-6.78372e-22
2.23302e-20
-6.51249e-22
-1.607e-21
2.81468e-20
-1.06138e-17
2.06493e-18
-5.60929e-17
1.06998e-16
-2.21126e-16
2.1888e-16
-6.87071e-16
1.02827e-15
1.13045e-15
2.30599e-15
-2.21541e-13
4.65843e-15
-3.42571e-13
1.02883e-13
4.43188e-12
7.47371e-13
1.44177e-11
1.73478e-12
1.01177e-11
2.79827e-13
2.39643e-12
-3.7019e-13
3.65611e-13
-1.03587e-13
4.3184e-14
-1.33277e-14
7.40061e-15
1.69106e-15
1.35249e-15
3.84657e-16
1.20337e-16
2.70915e-17
7.9422e-18
9.30365e-19
5.04188e-19
1.96909e-22
2.95163e-20
-3.13476e-21
1.68245e-21
-3.36718e-22
4.98616e-22
-2.96623e-23
7.42246e-22
-2.40522e-23
-6.09616e-23
1.60717e-21
-1.13981e-18
2.21583e-19
-4.42385e-18
1.11658e-17
-1.75568e-17
1.87316e-17
-9.56078e-17
8.70165e-17
-5.25845e-16
5.61346e-16
-3.02435e-15
1.43852e-15
4.01163e-14
1.25489e-14
4.85276e-13
6.25106e-14
1.21061e-12
1.18774e-13
7.85609e-13
2.28911e-14
1.99656e-13
-1.87977e-14
3.22168e-14
-6.69214e-15
5.60986e-15
1.50811e-15
1.10873e-15
3.96951e-16
1.07996e-16
3.55514e-17
8.07869e-18
2.10839e-18
5.28586e-19
9.39261e-20
3.01177e-20
2.15419e-21
1.63098e-21
-6.51528e-23
8.81513e-23
-1.1841e-23
2.3422e-23
-1.26104e-24
3.10546e-23
-9.24895e-25
-2.63164e-24
6.97967e-23
-1.08983e-19
2.23211e-20
-2.57371e-19
1.25188e-18
-6.56354e-19
1.68701e-18
-4.36245e-18
6.91415e-18
-7.61865e-18
7.09834e-17
2.8485e-16
4.44516e-16
5.27267e-15
1.59889e-15
3.90742e-14
5.70006e-15
8.71801e-14
1.06167e-14
5.682e-14
3.07194e-15
1.3695e-14
-5.254e-17
2.88813e-15
9.75995e-16
6.70873e-16
2.68152e-16
7.22134e-17
2.83502e-17
6.47652e-18
2.25402e-18
4.92838e-19
1.44784e-19
3.11306e-20
6.96999e-21
1.66718e-21
2.23182e-22
8.10671e-23
1.89193e-24
4.34539e-24
-3.11972e-25
1.22151e-24
-4.89631e-26
1.31914e-24
-5.1146e-26
-3.20188e-25
3.86222e-24
-8.76678e-21
1.96316e-21
-7.71936e-21
1.39092e-19
-1.03786e-21
1.537e-19
1.0293e-19
5.2334e-19
3.15788e-18
5.00999e-18
5.47487e-17
5.18111e-17
5.29775e-16
2.60963e-16
2.98046e-15
7.84109e-16
5.97455e-15
9.93626e-16
3.56619e-15
8.30344e-16
1.08108e-15
4.02497e-16
2.65161e-16
1.27227e-16
3.61513e-17
1.55043e-17
3.99785e-18
1.6052e-18
3.61011e-19
1.33405e-19
2.64994e-20
8.60953e-21
1.60449e-21
4.25074e-22
8.11063e-23
1.51982e-23
3.58263e-24
3.02911e-25
1.97919e-25
-4.25599e-27
7.66004e-26
-1.67734e-27
9.01179e-26
-3.70099e-27
-5.892e-26
6.42043e-25
-4.08353e-22
1.55373e-22
1.06743e-21
1.42266e-20
3.40939e-21
1.32605e-20
2.8279e-20
3.87822e-20
4.37144e-19
3.34135e-19
6.12891e-18
3.2426e-18
5.28292e-17
2.22703e-17
2.4162e-16
8.44858e-17
4.11035e-16
1.25943e-16
2.72801e-16
9.37534e-17
7.78262e-17
3.29351e-17
1.38586e-17
5.92372e-18
1.90237e-18
8.1548e-19
2.07564e-19
8.65787e-20
1.80176e-20
7.09099e-21
1.26749e-21
4.52157e-22
7.34194e-23
2.23774e-23
3.53952e-24
8.33297e-25
1.4642e-25
2.08287e-26
8.4653e-27
1.56135e-28
5.52868e-27
-5.13765e-29
8.88938e-27
-3.33652e-28
-8.51316e-27
1.38882e-25
3.16777e-25
1.27047e-23
2.22136e-22
1.33189e-21
4.43432e-22
1.06189e-21
3.04285e-21
2.74702e-21
3.9769e-20
2.22288e-20
4.94148e-19
1.99272e-19
4.08347e-18
1.28879e-18
1.75154e-17
5.11184e-18
2.72265e-17
8.02264e-18
1.62275e-17
4.98659e-18
4.03561e-18
1.53897e-18
7.00036e-19
2.98171e-19
9.34756e-20
4.12589e-20
9.76661e-21
4.2814e-21
8.11502e-22
3.42429e-22
5.46045e-23
2.14005e-23
3.01767e-24
1.04578e-24
1.3834e-25
3.92158e-26
5.40192e-27
1.05834e-27
3.64119e-28
1.63384e-29
2.64748e-28
-1.172e-30
1.29549e-27
-3.14855e-29
-9.3562e-28
2.14875e-26
9.46842e-26
1.06916e-24
2.78479e-23
1.15542e-22
4.27652e-23
7.92207e-23
2.52309e-22
1.84429e-22
3.03223e-21
1.42512e-21
3.44987e-20
1.21761e-20
2.63395e-19
7.37908e-20
1.02932e-18
2.67975e-19
1.49739e-18
3.92763e-19
8.22163e-19
2.40994e-19
1.97987e-19
7.55294e-20
3.29052e-20
1.44416e-20
4.20297e-21
1.94404e-21
4.19745e-22
1.9603e-22
3.33207e-23
1.52391e-23
2.1379e-24
9.26584e-25
1.12282e-25
4.42009e-26
4.87124e-27
1.63445e-27
1.81418e-28
4.50222e-29
1.67655e-29
8.93535e-31
1.3535e-29
2.15219e-32