/*--------------------------------*- C++ -*----------------------------------*\
| =========                 |                                                 |
| \\      /  F ield         | OpenFOAM: The Open Source CFD Toolbox           |
|  \\    /   O peration     | Version:  5.x                                   |
|   \\  /    A nd           | Web:      www.OpenFOAM.org                      |
|    \\/     M anipulation  |                                                 |
\*---------------------------------------------------------------------------*/
FoamFile
{
    version     2.0;
    format      ascii;
    class       volScalarField;
    location    "1";
    object      p;
}
// * * * * * * * * * * * * * * * * * * * * * * * * * * * * * * * * * * * * * //

dimensions      [1 -1 -2 0 0 0 0];

internalField   nonuniform List<scalar> 
2268
(
956.061
941.708
924.653
905.571
885.926
868.052
850.952
838.82
836.728
847.012
868.176
895.971
926.058
952.515
973.523
990.212
1009.49
1032.5
1055
1070.6
1077.84
1077.36
1070.23
899.449
883.463
866.361
846.317
826.407
808.403
790.627
777.619
774.775
784.949
806.734
835.445
866.946
895.979
917.443
931.656
945.932
969.971
995.101
1010.61
1017.43
1015.72
1009.12
845.061
831.153
809.558
786.316
765.454
747.505
728.881
714.206
709.653
718.979
741.404
771.926
805.934
838.334
860.963
872.504
886.879
910.792
934.845
950.105
956.222
953.117
946.39
793.171
778.353
753.272
725.707
703.482
685.503
665.778
648.461
641.233
649.187
672.418
705.416
742.387
777.415
802.276
816.129
831.851
853.745
874.768
889.546
895.013
889.814
882.21
743.504
727.149
697.718
665.219
641.55
622.658
601.396
580.317
569.183
575.2
599.688
636.112
677.272
715.856
744.954
763.342
779.706
797.721
815.01
829.009
833.531
825.398
816.117
694.94
677.791
643.257
606.064
579.978
559.979
535.737
509.387
492.705
496.236
522.137
563.743
611.444
655.857
689.785
711.714
727.379
741.457
754.927
767.965
771.624
759.598
747.943
651.025
630.92
590.013
548.373
519.868
497.519
468.302
435.398
409.697
409.815
438.77
487.83
544.827
597.401
636.099
659.731
674.364
684.349
693.877
707.351
710.86
693.921
677.828
611.461
585.373
537.14
491.905
461.719
435.384
398.625
356.823
318.517
313.941
347.565
407.383
477.463
540.661
584.109
607.929
620.187
625.603
630.783
643.372
647.804
625.085
607.739
628.808
629.798
640.017
605.817
542.063
500.532
503.757
540.31
575.776
571.215
557.095
525.103
495.19
479.969
475.573
464.072
436.696
411.232
430.451
569.539
570.157
576.823
539.741
475.846
432.865
434.013
481.743
522.365
517.434
496.774
461.69
435.325
424.022
421.497
408.845
377.64
357.768
380.01
511.557
512.119
512.258
466.361
404.341
358.614
358.117
420.816
466.205
460.887
445.769
413.982
408.244
398.059
381.648
355.846
324.963
312.99
323.916
453.531
450.259
447.87
401.471
342.608
297.027
285.13
360.031
409.841
420.992
418.498
392.524
375.498
352.256
317.924
286.135
287.649
297.663
310.475
393.989
385.568
383.735
343.203
287.138
242.919
222.728
303.966
361.972
393.383
384.219
362.371
336.339
293.514
271.465
271.107
274.212
278.704
292.677
350.495
324.267
314.983
278.958
245.927
204.908
177.626
258.187
331.112
359.683
347.3
326.099
281.091
245.39
259.692
265.386
264.439
239.565
263.568
298.156
266.807
236.289
198.954
203.918
185.043
156.951
224.845
302.14
318.154
304.907
278.414
243.168
226.128
243.322
241.573
235.627
205.879
202.891
249.922
213.786
159.056
126.147
168.404
170.532
148.432
201.87
268.647
267.389
269.5
249.593
221.647
211.543
213.611
207.024
184.095
159.688
127.33
553.012
516.291
455.217
405.616
373.764
340.959
287.956
222.632
170.957
169.179
206.803
279.033
369.821
454.053
506.325
528.022
534.239
529.238
518.316
521.827
534.507
507.323
462.997
440.681
374.646
334.396
300.325
262.124
219.798
155.457
105.053
106.148
112.353
130.156
182.579
264.151
349.705
407.068
426.3
417.115
390.616
366.143
367.144
387.408
369.714
326.051
287.669
167.236
165.834
180.966
174.208
124.299
97.7108
98.0849
100.743
105.02
111.534
135.017
187.144
272.961
327.745
352.595
352.556
342.203
332.719
328.623
322.715
268.172
202.309
253.655
90.0249
92.4153
94.7904
85.5363
82.7128
86.2226
93.2888
96.9383
99.5895
99.7237
101.037
121.988
181.937
251.582
302.697
324.339
325.822
319.339
309.463
282.3
183.542
99.6088
420.784
225.432
114.2
87.1351
83.5078
81.4057
82.9427
87.637
91.0105
90.7792
84.1371
75.7336
79.5811
116.418
172.925
222.985
259.737
278.572
279.532
258.508
202.855
128.276
64.4785
529.28
267.628
151.151
92.4408
75.9856
73.2447
81.2248
86.6955
89.8883
89.489
82.767
74.9871
60.3926
27.2757
32.8339
62.132
110.401
156.584
173.526
150.377
106.059
73.1793
43.1803
469.519
216.239
108.209
55.625
32.9608
30.4201
52.5656
71.87
77.8908
71.7989
56.0464
22.643
1.93221
-1.31652
-1.2813
1.41276
9.30155
33.0364
59.8809
59.4236
47.1292
32.3002
30.5226
294.35
103.222
43.2997
17.0089
6.62349
7.35638
3.92016
3.99426
2.44033
-1.11307
-2.03728
-2.70417
-2.99831
-2.60712
-2.51079
-2.12502
-1.62679
-1.47574
3.93506
21.3035
32.4717
27.416
28.7695
139.364
28.4618
9.35123
3.0333
0.272766
-1.28371
-4.00985
-4.67778
-4.29181
-3.90195
-3.60569
-3.39465
-3.25454
-3.0622
-2.97198
-2.88344
-2.7927
-2.78888
-3.78016
0.590875
21.2591
32.7709
30.9368
60.8771
5.0839
0.152985
-1.44099
-2.28605
-3.57734
-4.72879
-4.77935
-4.45112
-4.10017
-3.84365
-3.69346
-3.57318
-3.45355
-3.35805
-3.27333
-3.18443
-3.14063
-3.46982
-2.94299
6.57611
32.3067
32.5846
35.8238
-0.777501
-1.49044
-2.46297
-3.06264
-3.81902
-4.37929
-4.47027
-4.27478
-4.06863
-3.93176
-3.82971
-3.74406
-3.65659
-3.5677
-3.46786
-3.35405
-3.24698
-3.23994
-3.58508
1.84548
24.8751
13.9118
22.586
-3.01645
-2.04504
-2.78263
-3.15116
-3.6374
-4.01074
-4.15196
-4.11761
-4.03609
-3.95364
-3.88259
-3.81073
-3.73567
-3.65405
-3.55434
-3.43284
-3.3081
-3.21525
-3.13683
-2.8265
2.89861
12.7175
-1.52798
-3.59447
-2.54997
-3.13077
-3.2565
-3.60674
-3.85205
-3.99432
-4.02612
-4.00525
-3.95993
-3.90886
-3.84974
-3.78269
-3.70438
-3.61187
-3.49873
-3.37603
-3.25546
-3.10253
-2.88997
-2.7004
-2.26341
-3.01188
-3.77642
-3.01431
-3.47754
-3.45661
-3.72747
-3.86753
-3.9947
-4.03256
-4.03495
-4.0107
-3.97005
-3.91497
-3.84711
-3.76539
-3.67808
-3.56956
-3.45221
-3.32882
-3.19047
-3.03615
-2.88738
-2.68153
1.17063
-3.13638
-3.33889
-3.81936
-3.72698
-3.9193
-3.99469
-4.09374
-4.14126
-4.15511
-4.13417
-4.08697
-4.02313
-3.94589
-3.85658
-3.75805
-3.64999
-3.53575
-3.41843
-3.30391
-3.18559
-3.04131
-2.86596
27.2407
-2.32968
-3.65024
-4.02456
-4.01523
-4.12006
-4.19217
-4.3104
-4.38726
-4.41067
-4.37054
-4.29228
-4.19307
-4.08468
-3.97212
-3.85635
-3.73863
-3.62147
-3.50822
-3.40202
-3.30978
-3.20586
-3.05404
39.9126
-4.54891
-3.98756
-4.18987
-4.28309
-4.3474
-4.4821
-4.68634
-4.84083
-4.8925
-4.81775
-4.65136
-4.45824
-4.27513
-4.11252
-3.96665
-3.83261
-3.70722
-3.59123
-3.48556
-3.38954
-3.2969
-3.18695
12.8806
-5.38327
-3.84725
-4.44339
-4.59396
-4.63707
-4.90124
-5.27369
-5.59309
-5.70562
-5.54968
-5.20908
-4.83431
-4.51848
-4.27169
-4.08156
-3.92504
-3.78947
-3.66981
-3.563
-3.4657
-3.37166
-3.27267
0.0888482
-2.50679
-3.40152
-4.56983
-4.85754
-4.97385
-5.39591
-6.00647
-6.58541
-6.7887
-6.54049
-5.92656
-5.26577
-4.77421
-4.4254
-4.18753
-4.00621
-3.86178
-3.74058
-3.6352
-3.54024
-3.45069
-3.3627
-1.68917
-2.0121
-3.42622
-4.62499
-5.06178
-5.28374
-5.8112
-6.61695
-7.39476
-7.64339
-7.34653
-6.55248
-5.62388
-4.97375
-4.54124
-4.25888
-4.06385
-3.91744
-3.7994
-3.69938
-3.61083
-3.52899
-3.45107
-2.26769
-2.35644
-2.875
-4.45181
-5.12024
-5.47834
-6.03075
-6.89372
-7.69051
-7.97174
-7.67875
-6.84556
-5.8083
-5.03692
-4.57126
-4.28227
-4.09051
-3.95246
-3.84431
-3.75408
-3.67505
-3.60299
-3.53562
-2.44837
-2.3895
-2.61424
-3.75034
-4.85743
-5.4215
-5.97447
-6.73461
-7.43706
-7.71628
-7.46432
-6.7166
-5.70862
-4.94513
-4.50774
-4.25144
-4.08509
-3.96742
-3.87629
-3.80031
-3.73352
-3.67251
-3.61563
-2.68738
-2.61633
-2.67563
-3.26052
-4.27486
-5.08606
-5.66352
-6.2831
-6.83173
-7.04997
-6.82505
-6.16558
-5.32812
-4.70919
-4.36784
-4.17798
-4.05586
-3.96848
-3.89977
-3.84116
-3.78843
-3.73932
-3.69289
-2.9618
-2.92376
-2.97693
-3.31408
-3.96401
-4.66555
-5.19781
-5.64441
-5.99009
-6.0827
-5.83372
-5.3554
-4.7908
-4.40257
-4.19809
-4.08991
-4.01938
-3.96608
-3.92154
-3.88119
-3.84291
-3.80578
-3.76958
-3.26314
-3.26962
-3.35436
-3.61239
-4.05124
-4.4812
-4.77871
-4.97948
-5.09407
-5.07002
-4.87688
-4.58429
-4.30366
-4.1365
-4.05739
-4.02005
-3.99429
-3.97136
-3.94869
-3.92507
-3.90019
-3.87422
-3.84752
-3.55081
-3.58498
-3.70554
-3.95637
-4.27762
-4.51529
-4.57934
-4.52161
-4.42284
-4.31361
-4.19227
-4.07631
-4.0018
-3.9766
-3.97946
-3.98825
-3.99291
-3.9922
-3.98652
-3.97649
-3.96287
-3.9465
-3.92814
-3.79308
-3.82921
-3.94183
-4.1909
-4.42226
-4.55622
-4.50719
-4.32947
-4.12946
-3.97645
-3.89666
-3.87665
-3.8945
-3.92998
-3.96703
-3.99746
-4.01891
-4.03187
-4.03767
-4.03753
-4.03258
-4.02391
-4.01242
-3.98757
-4.02242
-4.11242
-4.27043
-4.43243
-4.51231
-4.4506
-4.27979
-4.08376
-3.94287
-3.88296
-3.8827
-3.91681
-3.96224
-4.00558
-4.04202
-4.07021
-4.09005
-4.10253
-4.10881
-4.10999
-4.10707
-4.10093
-4.14868
-4.17492
-4.23189
-4.31691
-4.40047
-4.43559
-4.38797
-4.26682
-4.12822
-4.02431
-3.97811
-3.97751
-4.00394
-4.04115
-4.07956
-4.11404
-4.14248
-4.16437
-4.17996
-4.18989
-4.19499
-4.19607
-4.19389
-4.28678
-4.30429
-4.3359
-4.37498
-4.40584
-4.40739
-4.3668
-4.29013
-4.20387
-4.13727
-4.10437
-4.10123
-4.11814
-4.14551
-4.17607
-4.20536
-4.23093
-4.2519
-4.26818
-4.27972
-4.28701
-4.29065
-4.29121
-4.41089
-4.42145
-4.43759
-4.45319
-4.46007
-4.44843
-4.4139
-4.36212
-4.30686
-4.26303
-4.23884
-4.23412
-4.24418
-4.26317
-4.28615
-4.30962
-4.33127
-4.34958
-4.36527
-4.37701
-4.38522
-4.3903
-4.39263
-4.52719
-4.53282
-4.54
-4.54407
-4.54129
-4.52712
-4.49974
-4.4626
-4.42452
-4.3936
-4.37506
-4.36957
-4.37483
-4.38745
-4.40417
-4.42234
-4.44011
-4.45647
-4.46963
-4.4805
-4.48874
-4.49442
-4.49777
-4.63979
-4.64228
-4.6445
-4.64289
-4.63633
-4.62257
-4.60103
-4.57411
-4.54695
-4.52449
-4.51003
-4.5044
-4.50662
-4.51474
-4.5266
-4.5403
-4.55431
-4.56755
-4.57908
-4.58884
-4.59661
-4.60236
-4.60618
-4.75114
-4.75183
-4.75172
-4.74715
-4.73971
-4.72744
-4.7105
-4.6906
-4.67084
-4.65422
-4.64289
-4.63763
-4.63807
-4.64311
-4.65138
-4.6615
-4.67233
-4.68293
-4.69263
-4.70105
-4.70803
-4.71348
-4.71738
-4.86255
-4.86222
-4.86074
-4.85599
-4.84863
-4.83816
-4.82486
-4.80992
-4.79526
-4.78278
-4.77388
-4.7692
-4.76867
-4.77167
-4.77732
-4.78469
-4.79292
-4.80126
-4.80916
-4.81623
-4.8223
-4.82722
-4.83094
-4.97475
-4.97404
-4.97203
-4.96758
-4.96107
-4.95246
-4.94208
-4.93079
-4.9198
-4.91035
-4.90336
-4.89934
-4.89833
-4.89999
-4.90379
-4.90907
-4.91521
-4.92164
-4.92793
-4.93373
-4.93882
-4.94309
-4.94647
-5.08809
-5.08727
-5.08523
-5.08138
-5.07597
-5.06909
-5.06108
-5.05255
-5.0443
-5.03714
-5.03169
-5.02833
-5.02714
-5.02796
-5.03044
-5.03415
-5.03864
-5.0435
-5.04837
-5.05298
-5.05712
-5.06071
-5.06364
-5.20264
-5.20182
-5.20004
-5.19692
-5.19262
-5.1873
-5.18124
-5.17488
-5.16875
-5.16338
-5.15919
-5.15647
-5.15529
-5.15558
-5.15713
-5.15966
-5.16286
-5.16642
-5.17009
-5.17363
-5.17691
-5.17979
-5.18225
-5.31827
-5.31755
-5.31615
-5.3138
-5.31056
-5.30662
-5.30219
-5.29759
-5.29315
-5.28923
-5.28612
-5.28399
-5.28295
-5.28294
-5.28385
-5.2855
-5.28768
-5.29019
-5.29283
-5.29543
-5.29789
-5.30011
-5.30208
-5.43487
-5.4343
-5.43332
-5.4317
-5.42945
-5.42673
-5.42372
-5.42059
-5.41758
-5.41489
-5.41271
-5.41117
-5.41033
-5.41018
-5.41066
-5.41165
-5.41304
-5.41468
-5.41644
-5.41823
-5.41994
-5.42153
-5.42298
-5.55212
-5.55171
-5.55119
-5.55027
-5.54893
-5.54734
-5.54557
-5.54375
-5.54199
-5.54041
-5.53911
-5.53816
-5.5376
-5.53744
-5.53765
-5.53816
-5.53892
-5.53984
-5.54086
-5.5419
-5.54294
-5.54393
-5.54479
-5.67031
-5.67006
-5.66983
-5.66952
-5.66909
-5.66857
-5.66797
-5.66735
-5.66674
-5.66617
-5.66569
-5.66531
-5.66506
-5.66494
-5.66495
-5.66506
-5.66527
-5.66554
-5.66584
-5.66616
-5.66647
-5.66675
-5.66706
418.775
390.719
358.219
320.698
292.668
266.95
235.542
208.787
169.03
142.713
115.36
99.846
76.8661
76.4698
66.7154
59.2137
49.5576
45.4598
44.3915
46.771
37.6717
35.231
34.4277
35.3412
29.0587
27.8022
26.5281
24.7898
26.8923
25.4908
23.9837
22.6268
28.4009
26.5579
24.8904
23.4534
28.7707
27.8274
26.8678
23.5409
16.0935
22.2183
18.3308
15.2973
15.9274
16.4347
15.0928
14.2121
-1.10938
-0.541752
-1.04499
-1.88839
-2.57935
-2.54824
-2.51068
-2.46874
-2.74097
-2.66867
-2.6042
-2.55804
-2.90147
-2.82488
-2.77493
-2.72968
-3.07163
-3.00874
-2.9567
-2.90694
-3.19499
-3.14177
-3.09353
-3.05082
-3.29819
-3.25719
-3.21796
-3.18133
-3.39658
-3.36287
-3.33077
-3.30065
-3.4894
-3.46103
-3.43408
-3.40873
-3.57671
-3.55279
-3.53003
-3.5085
-3.66076
-3.64091
-3.62189
-3.60376
-3.744
-3.72804
-3.71256
-3.69762
-3.82802
-3.81569
-3.80351
-3.79157
-3.914
-3.90487
-3.89564
-3.88639
-4.00276
-3.99633
-3.98962
-3.9827
-4.09487
-4.09062
-4.08599
-4.08102
-4.19058
-4.18804
-4.18505
-4.18168
-4.28992
-4.28866
-4.28694
-4.28482
-4.39275
-4.39241
-4.39163
-4.39045
-4.49881
-4.49909
-4.49898
-4.4985
-4.60776
-4.60843
-4.60877
-4.60878
-4.71923
-4.72013
-4.72074
-4.72106
-4.83286
-4.83384
-4.83459
-4.83511
-4.9483
-4.94929
-4.95009
-4.95071
-5.06532
-5.06626
-5.06705
-5.06771
-5.18372
-5.18457
-5.18532
-5.18598
-5.30332
-5.30406
-5.30475
-5.30539
-5.42397
-5.42458
-5.42517
-5.42574
-5.54543
-5.54586
-5.5463
-5.54676
-5.66736
-5.66763
-5.66796
-5.66835
240.56
152.219
109.075
110.803
139.902
150.215
142.867
172.284
209.169
222.689
234.104
226.512
196.97
171.92
150.181
112.906
60.611
49.85
39.2905
155.487
94.9083
91.4493
102.976
121.48
123.805
111.327
124.234
145.96
175.369
180.766
167.888
134.396
95.0672
56.4965
13.5043
-1.21162
-0.982725
7.83397
81.6501
76.7216
81.8947
93.7249
105.138
97.1448
79.684
88.209
106.149
121.3
118.421
91.3985
50.3082
16.348
4.47676
-2.29989
-6.5505
-8.79322
-2.14577
55.4917
65.8461
75.1952
82.9573
88.7589
80.9944
70.6178
67.2758
80.6367
75.9958
54.6405
19.0756
3.98615
0.715189
-0.26413
-2.82729
-6.29578
-7.50937
-3.64895
50.8724
55.4487
64.3328
71.6961
84.7278
90.3237
67.3487
57.9829
55.1458
35.2183
8.12336
0.504747
0.256328
0.318076
-0.197633
-2.05064
-4.20796
-3.9175
-2.05129
40.464
42.8807
43.3188
45.4644
61.2237
69.8665
57.7526
40.726
27.8876
7.28993
0.0247667
-0.162438
-0.102842
0.0497106
0.0217152
-0.644792
-1.45182
-1.04568
-0.906972
23.2875
24.088
25.3099
28.0251
34.7578
46.6133
39.4805
23.1899
9.2621
-0.122061
-0.746797
-0.584371
-0.510361
-0.258806
0.913213
0.768205
0.285448
0.180396
-0.344635
21.4561
22.3451
23.7341
25.8519
24.3106
27.4163
19.0486
7.18797
1.89744
-1.36867
-1.14668
-0.963529
-0.819846
-0.667149
0.542519
1.48637
0.916907
0.445897
-0.110788
21.6706
21.6441
22.5629
22.0444
16.8573
11.6514
5.35887
-0.550215
-1.5499
-1.50155
-1.36403
-1.27241
-1.13987
-1.27326
-1.32969
0.559902
0.776431
0.317947
-0.32028
20.6566
20.9068
20.4549
15.9752
6.30288
1.03241
-1.01565
-1.08103
-1.52786
-1.5968
-1.60617
-1.59626
-1.61789
-2.08722
-3.009
-2.55519
-0.948415
-0.185693
-0.629806
14.0166
15.0489
13.3115
3.58905
-1.34366
-2.18179
-1.7583
-1.68095
-1.77925
-1.82048
-1.85884
-1.90919
-2.07398
-2.62709
-3.86927
-5.13192
-3.09206
-1.0639
-0.761958
11.2797
7.53615
3.64553
-2.15289
-2.47821
-2.39176
-2.19581
-2.10865
-2.06605
-2.04772
-2.058
-2.1077
-2.29289
-2.86552
-3.92966
-4.98934
-3.37178
-1.46299
-0.987184
-2.23767
-2.27334
-2.28986
-2.4373
-2.58765
-2.56162
-2.51741
-2.44694
-2.3398
-2.25111
-2.2063
-2.20668
-2.29698
-2.6432
-3.29423
-3.64992
-2.63105
-1.50389
-1.234
-2.39968
-2.37181
-2.38177
-2.44614
-2.59985
-2.75651
-2.79145
-2.70818
-2.55993
-2.41165
-2.31416
-2.26634
-2.26023
-2.33281
-2.46874
-2.41447
-1.99577
-1.59205
-1.4671
-2.50742
-2.45787
-2.41563
-2.47175
-2.66187
-2.87223
-2.93165
-2.84951
-2.68681
-2.51633
-2.39557
-2.3208
-2.27006
-2.22536
-2.15205
-2.02135
-1.87077
-1.78392
-1.7385
-2.64945
-2.59582
-2.55659
-2.5843
-2.71775
-2.90528
-2.95293
-2.87815
-2.73416
-2.57954
-2.47159
-2.39425
-2.32482
-2.24873
-2.15889
-2.06804
-2.011
-2.00532
-1.9989
-2.81675
-2.74928
-2.71323
-2.71695
-2.79051
-2.88643
-2.91281
-2.859
-2.75503
-2.64435
-2.55974
-2.49172
-2.42199
-2.34514
-2.26898
-2.20852
-2.1778
-2.16624
-2.16601
-2.98479
-2.90927
-2.87194
-2.86165
-2.88628
-2.92254
-2.92495
-2.8818
-2.80881
-2.73154
-2.6654
-2.60725
-2.54464
-2.47812
-2.4171
-2.37013
-2.34236
-2.32577
-2.32444
-3.12653
-3.06216
-3.02253
-3.0041
-3.00289
-3.00581
-2.99089
-2.95109
-2.89493
-2.83579
-2.78257
-2.73279
-2.68078
-2.62851
-2.58053
-2.54012
-2.51001
-2.50077
-2.50004
-3.25356
-3.19997
-3.16099
-3.135
-3.11767
-3.10212
-3.0783
-3.04184
-2.99632
-2.94801
-2.90363
-2.86167
-2.82086
-2.78246
-2.74436
-2.70582
-2.67458
-2.66637
-2.66288
-3.36908
-3.32309
-3.28627
-3.25676
-3.23161
-3.20736
-3.17949
-3.14535
-3.10621
-3.06494
-3.02674
-2.991
-2.95921
-2.93146
-2.90065
-2.86551
-2.83747
-2.82614
-2.8188
-3.47464
-3.43436
-3.40037
-3.37077
-3.34367
-3.31711
-3.2887
-3.25674
-3.22173
-3.18592
-3.15192
-3.12004
-3.09272
-3.06977
-3.04372
-3.01602
-2.99408
-2.97892
-2.96856
-3.57491
-3.53954
-3.5087
-3.48088
-3.45472
-3.42879
-3.40157
-3.37223
-3.34108
-3.30978
-3.27926
-3.24962
-3.22252
-3.19893
-3.17604
-3.15676
-3.14162
-3.12638
-3.11642
-3.67353
-3.64296
-3.6155
-3.59013
-3.56586
-3.54162
-3.51647
-3.49012
-3.4629
-3.43581
-3.40851
-3.38062
-3.35269
-3.32752
-3.30763
-3.29412
-3.28352
-3.27332
-3.26439
-3.77198
-3.74617
-3.72222
-3.69955
-3.67748
-3.65536
-3.63268
-3.60943
-3.58605
-3.5628
-3.53856
-3.51262
-3.48559
-3.46119
-3.44434
-3.43422
-3.42588
-3.41853
-3.4113
-3.87089
-3.8496
-3.82915
-3.80929
-3.78964
-3.76988
-3.74979
-3.7295
-3.7094
-3.6894
-3.66797
-3.64441
-3.62
-3.5984
-3.58396
-3.5753
-3.56763
-3.56146
-3.55608
-3.9708
-3.95366
-3.93657
-3.91953
-3.90239
-3.88505
-3.86745
-3.84978
-3.83233
-3.8148
-3.79589
-3.77515
-3.7541
-3.73575
-3.72293
-3.71528
-3.70785
-3.70244
-3.69836
-4.0722
-4.05875
-4.04478
-4.03045
-4.01576
-4.00074
-3.98542
-3.96998
-3.95459
-3.93897
-3.9223
-3.90453
-3.88704
-3.8719
-3.86061
-3.85281
-3.84619
-3.8416
-3.83857
-4.17541
-4.16514
-4.15397
-4.14213
-4.12973
-4.11687
-4.1036
-4.09007
-4.07636
-4.06236
-4.04774
-4.03281
-4.01859
-4.00625
-3.99634
-3.98885
-3.983
-3.97913
-3.97693
-4.2806
-4.273
-4.26427
-4.25466
-4.24435
-4.23344
-4.22201
-4.21017
-4.19802
-4.18558
-4.17291
-4.16049
-4.14899
-4.13892
-4.13038
-4.12359
-4.1185
-4.11518
-4.1135
-4.38783
-4.38243
-4.37577
-4.36812
-4.35965
-4.35048
-4.34072
-4.33047
-4.31985
-4.30902
-4.29821
-4.28794
-4.27857
-4.27027
-4.26304
-4.25716
-4.25277
-4.24986
-4.24856
-4.49709
-4.49343
-4.48848
-4.4825
-4.47563
-4.46802
-4.45979
-4.45107
-4.44201
-4.43281
-4.42376
-4.41531
-4.40758
-4.40071
-4.39466
-4.38969
-4.38595
-4.3834
-4.3823
-4.60824
-4.60593
-4.60238
-4.59778
-4.59232
-4.58611
-4.57931
-4.57207
-4.56456
-4.55695
-4.5495
-4.54256
-4.53619
-4.5305
-4.52547
-4.52133
-4.51817
-4.51602
-4.51498
-4.72113
-4.71983
-4.71739
-4.71397
-4.70973
-4.70481
-4.69936
-4.69355
-4.6875
-4.68133
-4.6753
-4.66965
-4.66443
-4.65976
-4.65563
-4.65223
-4.6496
-4.64781
-4.64689
-4.83557
-4.83502
-4.83347
-4.83106
-4.82794
-4.82421
-4.82003
-4.81553
-4.81077
-4.80588
-4.80108
-4.79656
-4.79237
-4.78861
-4.78527
-4.78252
-4.78037
-4.77891
-4.77818
-4.95141
-4.95144
-4.95062
-4.9491
-4.94699
-4.94434
-4.94129
-4.93792
-4.9343
-4.93054
-4.92685
-4.92335
-4.92009
-4.91713
-4.9145
-4.91234
-4.91063
-4.90949
-4.90891
-5.06856
-5.06902
-5.06883
-5.06809
-5.06685
-5.06515
-5.06307
-5.0607
-5.05809
-5.05536
-5.05267
-5.0501
-5.04767
-5.04545
-5.04347
-5.04184
-5.04052
-5.03966
-5.03921
-5.18692
-5.18771
-5.18803
-5.18793
-5.18742
-5.18652
-5.1853
-5.18382
-5.18215
-5.18037
-5.17859
-5.17684
-5.17517
-5.17362
-5.17223
-5.17107
-5.17012
-5.16952
-5.16917
-5.30635
-5.30736
-5.30807
-5.30848
-5.30859
-5.30838
-5.30793
-5.30727
-5.30645
-5.30553
-5.30455
-5.30356
-5.30258
-5.30164
-5.30078
-5.30005
-5.29943
-5.29905
-5.29879
-5.42664
-5.42778
-5.42878
-5.42962
-5.43026
-5.43069
-5.43094
-5.43103
-5.43098
-5.43082
-5.43057
-5.43026
-5.42991
-5.42953
-5.42916
-5.42882
-5.42851
-5.42832
-5.42813
-5.54757
-5.54879
-5.55006
-5.55129
-5.55242
-5.55344
-5.55433
-5.55511
-5.55578
-5.55633
-5.55677
-5.55711
-5.55735
-5.5575
-5.55759
-5.55763
-5.5576
-5.55759
-5.55743
-5.66909
-5.67038
-5.67185
-5.67341
-5.67498
-5.67654
-5.67805
-5.6795
-5.68087
-5.68213
-5.68327
-5.68425
-5.68509
-5.68578
-5.68633
-5.68675
-5.68701
-5.68717
-5.68695
)
;

boundaryField
{
    leftWall
    {
        type            calculated;
        value           nonuniform List<scalar> 
50
(
956.061
899.449
845.061
793.171
743.504
694.94
651.025
611.461
553.012
440.681
287.669
253.655
420.784
529.28
469.519
294.35
139.364
60.8771
35.8238
22.586
-1.52798
-3.01188
1.17063
27.2407
39.9126
12.8806
0.0888482
-1.68917
-2.26769
-2.44837
-2.68738
-2.9618
-3.26314
-3.55081
-3.79308
-3.98757
-4.14868
-4.28678
-4.41089
-4.52719
-4.63979
-4.75114
-4.86255
-4.97475
-5.08809
-5.20264
-5.31827
-5.43487
-5.55212
-5.67031
)
;
    }
    rightWall
    {
        type            calculated;
        value           nonuniform List<scalar> 
50
(
430.451
380.01
323.916
310.475
292.677
263.568
202.891
127.33
39.2905
7.83397
-2.14577
-3.64895
-2.05129
-0.906972
-0.344635
-0.110788
-0.32028
-0.629806
-0.761958
-0.987184
-1.234
-1.4671
-1.7385
-1.9989
-2.16601
-2.32444
-2.50004
-2.66288
-2.8188
-2.96856
-3.11642
-3.26439
-3.4113
-3.55608
-3.69836
-3.83857
-3.97693
-4.1135
-4.24856
-4.3823
-4.51498
-4.64689
-4.77818
-4.90891
-5.03921
-5.16917
-5.29879
-5.42813
-5.55743
-5.68695
)
;
    }
    lowerWall
    {
        type            calculated;
        value           nonuniform List<scalar> 
62
(
985.49
971.138
954.083
935.001
915.355
897.481
880.381
868.25
866.157
876.441
897.606
925.4
955.487
981.944
1002.62
1018.04
1037.49
1061.93
1084.1
1099.51
1107.16
1106.78
1099.66
1070.23
1009.12
946.39
882.21
816.117
747.943
677.828
607.739
481.373
453.317
420.816
383.295
628.808
569.539
511.557
453.531
393.989
350.495
298.156
249.922
657.907
659.221
669.056
630.154
563.69
526.711
533.144
569.739
604.623
597.556
586.525
554.533
524.619
509.255
504.12
492.148
463.747
434.494
454.337
)
;
    }
    atmosphere
    {
        type            calculated;
        value           nonuniform List<scalar> 
46
(
-5.72904
-5.72904
-5.72904
-5.72904
-5.72904
-5.72904
-5.72904
-5.72904
-5.72904
-5.72904
-5.72904
-5.72904
-5.72904
-5.72904
-5.72904
-5.72904
-5.72904
-5.72904
-5.72904
-5.72904
-5.72904
-5.72904
-5.72904
-5.72908
-5.72917
-5.72934
-5.72959
-5.73021
-5.73144
-5.73296
-5.73465
-5.73641
-5.73823
-5.74005
-5.74185
-5.7436
-5.74524
-5.74674
-5.74807
-5.74922
-5.7502
-5.751
-5.75163
-5.75206
-5.75234
-5.7519
)
;
    }
    defaultFaces
    {
        type            empty;
    }
}


// ************************************************************************* //
