/*--------------------------------*- C++ -*----------------------------------*\
| =========                 |                                                 |
| \\      /  F ield         | OpenFOAM: The Open Source CFD Toolbox           |
|  \\    /   O peration     | Version:  5.x                                   |
|   \\  /    A nd           | Web:      www.OpenFOAM.org                      |
|    \\/     M anipulation  |                                                 |
\*---------------------------------------------------------------------------*/
FoamFile
{
    version     2.0;
    format      ascii;
    class       volScalarField;
    location    "1";
    object      p_rgh;
}
// * * * * * * * * * * * * * * * * * * * * * * * * * * * * * * * * * * * * * //

dimensions      [1 -1 -2 0 0 0 0];

internalField   nonuniform List<scalar> 
2268
(
985.49
971.138
954.083
935.001
915.355
897.481
880.381
868.25
866.157
876.441
897.606
925.4
955.487
981.944
1002.62
1018.04
1037.49
1061.93
1084.1
1099.51
1107.16
1106.78
1099.66
987.737
971.751
954.649
934.605
914.695
896.691
878.916
865.907
863.063
873.237
895.022
923.734
955.212
981.396
1000.54
1014.78
1031.93
1058.11
1081.55
1097.06
1103.92
1104.01
1097.41
992.208
978.3
956.705
933.462
912.601
894.652
876.028
861.352
856.8
866.126
888.55
919.073
953.07
981.403
999.461
1011
1029.28
1057.48
1081.49
1096.2
1103.27
1100.26
1093.54
999.177
984.358
959.277
931.712
909.488
891.509
871.784
854.466
847.238
855.193
878.423
911.421
948.388
982.229
1002.37
1016.14
1037.1
1059.67
1080.77
1095.55
1101.02
1095.82
1088.22
1008.37
992.014
962.582
930.083
906.415
887.522
866.26
845.181
834.047
840.065
864.552
900.977
942.134
980.716
1009.81
1028.21
1044.57
1062.58
1079.87
1093.87
1098.39
1090.26
1080.98
1018.66
1001.51
966.98
929.787
903.7
883.65
859.458
833.11
816.428
819.959
845.86
887.466
935.167
979.58
1013.51
1035.44
1051.1
1065.18
1078.65
1091.69
1095.35
1083.32
1071.67
1033.61
1013.5
972.595
930.955
902.449
879.838
850.702
817.977
792.278
792.397
821.351
870.412
927.408
979.983
1018.68
1042.31
1056.95
1066.93
1076.45
1089.92
1093.42
1075.14
1059.99
1052.9
1026.81
978.58
933.346
903.16
876.525
839.691
798.261
759.957
755.381
789.005
848.824
918.904
982.102
1025.55
1049.37
1061.63
1067.03
1072.15
1084.61
1089.11
1062.55
1047.57
657.907
659.221
669.056
630.154
563.69
526.711
533.144
569.739
604.623
597.556
586.525
554.533
524.619
509.255
504.12
492.148
463.747
434.494
454.337
657.741
652.04
656.393
620.783
554.682
510.069
511.21
563.469
609.27
592.822
584.028
549.977
509.888
485.844
489.317
485.282
456.309
433.778
459.507
658.521
642.227
648.61
612.375
550.208
499.732
490.907
560.514
612.716
551.466
516.531
499.801
469.811
459.68
492.207
478.978
411.903
379.808
447.199
659.537
634.201
652.289
606.15
547.545
502.021
490.135
565.226
614.978
502.356
500.625
475.259
502.404
514.671
479.855
380.055
345.053
346.047
350.33
657.41
648.841
646.546
600.529
529.001
505.894
486.551
567.788
558.386
497.301
534.425
505.853
538.523
496.583
364.007
299.081
327.601
410.212
385.27
590.776
642.648
635.897
575.259
411.024
412.141
500.069
568.405
504.474
530.896
596.63
575.343
526.975
414.24
322.498
285.922
284.848
363.232
587.291
648.466
644.572
614.909
552.612
399.772
311.138
487.358
550.879
514.448
612.456
599.478
573.041
414.669
262.47
271.017
265.89
259.747
248.134
483.489
691.362
655.178
523.154
360.477
270.872
224.604
338.712
489.252
599.409
603.187
510.766
363.633
274.379
258.577
303.199
296.27
212.004
190.383
314.26
1081.95
1048.65
988.684
939.083
906.909
874.361
821.358
724.552
599.7
532.547
603.363
725.058
863.872
981.259
1039.79
1061.49
1067.69
1059.06
1031.57
1025.38
1065.7
1036.05
995.637
1071.89
1022.92
993.022
958.92
917.329
878.379
782.936
272.622
130.536
139.854
184.877
283.452
433.52
725.456
991.241
1056.96
1011.02
790.802
601.929
585.764
901.551
1028.27
984.633
1071.53
946.012
944.597
964.718
957.905
760.168
191.803
105.635
108.406
114.589
126.559
174.683
487.341
773.569
845.264
646.901
482.505
407.974
393.666
389.215
656.205
1051.89
986.037
1162.71
998.19
998.713
734.689
202.265
91.0161
94.6921
101.903
105.695
109.508
112.887
163.814
248.11
311.261
375.211
411.335
414.212
400.837
389.735
391.265
735.185
1092.21
1007.98
1455.03
1177.7
418.48
99.8814
93.5943
90.8618
92.3883
97.2432
100.811
101.267
97.0565
94.5627
240.713
529.701
649.367
720.458
725.838
667.46
593.321
763.204
1141.16
1159.77
868.852
1683.48
885.68
171.891
144.206
162.95
132.554
91.9937
97.6703
100.863
106.825
105.562
107.257
352.071
497.581
513.557
681.217
1005.13
1191
1218.16
1195.02
1155.63
1017.16
177.373
1707.13
626.097
119.496
116.032
127.943
74.6117
184.593
365.266
396.086
390.215
374.445
341.045
120.256
0.0534958
0.392553
4.58591
130.855
814.591
1213.69
1217.56
1202.4
496.655
40.0912
1596.64
420.843
49.7694
37.3573
40.8385
30.4538
181.469
283.469
161.458
55.8821
21.3862
1.84932
-1.58475
-1.17811
-1.00869
-0.288159
1.85522
11.6199
743.591
1287.56
1119.29
187.166
38.5859
1426.58
280.174
13.5214
6.65499
3.5712
13.1559
28.4467
8.06788
-2.5523
-2.3669
-2.07064
-1.85955
-1.71912
-1.52454
-1.41924
-1.24602
-0.716596
1.86639
116.284
1006
1138.28
112.047
41.5657
1454.9
169.969
3.18353
1.01866
-0.158435
-0.751878
-2.72525
-3.10786
-2.79088
-2.43993
-2.18342
-2.03322
-1.91293
-1.79321
-1.69678
-1.60608
-1.45836
-0.959501
1.82619
298.61
981.027
532.247
57.624
1626.56
100.884
0.972306
-0.371854
-1.156
-1.93744
-2.54671
-2.68444
-2.48935
-2.2832
-2.14633
-2.04427
-1.95862
-1.87114
-1.78232
-1.68272
-1.56797
-1.42629
-1.21131
-0.0214134
302.246
731.845
720.214
1547.48
78.7211
0.171366
-0.757219
-1.21008
-1.7094
-2.09235
-2.24078
-2.2068
-2.12547
-2.04301
-1.97195
-1.90009
-1.825
-1.74337
-1.64366
-1.52204
-1.39755
-1.29397
-1.16507
-0.681139
172.513
462.932
435.108
57.3521
-0.398209
-1.06243
-1.21333
-1.56795
-1.81519
-1.95834
-1.99026
-1.96943
-1.9241
-1.87302
-1.81363
-1.74648
-1.66846
-1.57596
-1.46279
-1.34007
-1.21873
-1.05095
-0.71174
-0.403609
0.126816
138.41
22.3873
-0.815663
-1.30937
-1.2938
-1.56596
-1.7064
-1.83368
-1.87155
-1.87394
-1.84969
-1.80881
-1.75354
-1.68568
-1.60405
-1.5169
-1.40773
-1.29119
-1.1246
-0.331133
0.170686
-0.23144
-0.251985
1111.97
1.275
-1.04079
-1.5315
-1.44029
-1.633
-1.70847
-1.80754
-1.85506
-1.8689
-1.84796
-1.80077
-1.73685
-1.65943
-1.57004
-1.47152
-1.36378
-1.24953
-1.10504
-1.01282
0.207759
1.26048
1.38657
2138.15
13.2339
-1.23085
-1.61269
-1.60375
-1.70863
-1.78076
-1.899
-1.97586
-1.99927
-1.95914
-1.88086
-1.78165
-1.67327
-1.56062
-1.44486
-1.32717
-1.21007
-1.09684
-0.990638
-0.898394
-0.0971026
1.46717
1860.4
33.5137
-1.42537
-1.65325
-1.74646
-1.81078
-1.94548
-2.14974
-2.30423
-2.3559
-2.28104
-2.11435
-1.92159
-1.73854
-1.57594
-1.43007
-1.29603
-1.17063
-1.05465
-0.948979
-0.85296
-0.760317
-0.598361
406.365
73.7621
-1.09804
-1.77832
-1.93208
-1.97523
-2.23942
-2.61188
-2.50931
-2.39014
-2.69231
-2.44257
-2.17188
-1.85667
-1.60991
-1.41979
-1.26327
-1.1277
-1.00803
-0.901227
-0.803921
-0.709881
-0.610893
2.87559
92.2962
3.86271
-1.75696
-2.06968
-2.18671
-2.60803
-3.01902
-3.07643
-3.27687
-3.0315
-2.4214
-2.42126
-1.9858
-1.63823
-1.40055
-1.21925
-1.07481
-0.953609
-0.84823
-0.753273
-0.663722
-0.575734
1.22219
68.1978
29.3394
-1.54934
-2.1376
-2.37053
-2.89169
-2.9596
-3.72519
-3.97471
-3.67696
-2.88767
-2.19632
-2.02297
-1.62861
-1.3467
-1.15169
-1.00527
-0.88724
-0.787222
-0.698671
-0.616829
-0.538912
0.769575
5.19704
29.9273
5.9849
-2.00188
-2.42823
-2.98021
-3.53389
-3.93285
-4.35795
-4.01956
-3.03136
-2.01916
-1.91232
-1.53339
-1.24486
-1.05315
-0.915105
-0.806951
-0.716718
-0.637697
-0.565634
-0.498266
0.714171
0.861452
6.97583
8.06887
1.57836
-2.19048
-2.79069
-3.50053
-4.14645
-4.46132
-4.2125
-3.05057
-1.85824
-1.66931
-1.34388
-1.08875
-0.922521
-0.804865
-0.713742
-0.637753
-0.570967
-0.509958
-0.453079
0.600363
0.677967
0.842003
5.31039
3.96841
-0.576374
-2.30154
-2.87913
-3.44602
-3.6695
-3.44263
-2.63164
-1.43258
-1.26703
-1.07782
-0.889972
-0.768083
-0.680731
-0.612019
-0.553415
-0.500679
-0.451573
-0.405139
0.451134
0.489579
0.46306
0.267751
1.11513
0.517612
-0.998549
-2.09913
-2.46744
-2.56806
-2.3152
-1.44245
-0.808994
-0.818192
-0.782451
-0.676634
-0.606403
-0.553137
-0.508594
-0.468244
-0.429968
-0.392838
-0.356634
0.274996
0.268526
0.185219
-0.0616477
-0.471353
-0.32439
-0.531582
-1.29256
-1.42978
-1.41814
-0.898481
-0.46513
-0.218326
-0.515481
-0.517169
-0.481659
-0.456125
-0.433221
-0.410555
-0.386935
-0.362055
-0.33608
-0.309388
0.112517
0.0783487
-0.0421824
-0.292371
-0.609237
-0.833887
-0.864631
-0.744842
-0.522541
-0.10928
0.0726355
0.180477
0.00117102
-0.299365
-0.31527
-0.324811
-0.329572
-0.328868
-0.323191
-0.313156
-0.299541
-0.283174
-0.264813
-0.00455588
-0.0406863
-0.153301
-0.402346
-0.633289
-0.763404
-0.699974
-0.106679
0.257086
0.423703
0.503143
0.340895
-0.0691877
-0.140225
-0.17834
-0.208919
-0.230386
-0.243346
-0.24915
-0.249007
-0.244059
-0.235386
-0.223893
-0.0738527
-0.108703
-0.198705
-0.356706
-0.51868
-0.59574
-0.499523
0.0223897
0.415151
0.588631
0.370637
0.063663
-0.00184786
-0.048321
-0.0918407
-0.128301
-0.156491
-0.17633
-0.188807
-0.195095
-0.19627
-0.193349
-0.187212
-0.10977
-0.136002
-0.192976
-0.277991
-0.361548
-0.394076
-0.327236
-0.175749
0.0842332
0.113547
0.0735976
0.0622406
0.0351566
-0.00221307
-0.0406393
-0.0751242
-0.103566
-0.125461
-0.141047
-0.150976
-0.156073
-0.157158
-0.154975
-0.122673
-0.140186
-0.171796
-0.210872
-0.241718
-0.243022
-0.202188
-0.12529
-0.0382187
0.0279166
0.0601193
0.0629725
0.0459875
0.0185986
-0.0119586
-0.0412471
-0.0668188
-0.087791
-0.104074
-0.115613
-0.122898
-0.126538
-0.127102
-0.12159
-0.132147
-0.14829
-0.163891
-0.170767
-0.159122
-0.124582
-0.0727478
-0.0174007
0.0263761
0.0505013
0.0551932
0.0451294
0.0261376
0.00314945
-0.0203128
-0.0419639
-0.060274
-0.0759655
-0.0877088
-0.0959205
-0.100997
-0.10333
-0.112697
-0.118325
-0.125507
-0.129574
-0.126793
-0.11262
-0.0852404
-0.0480986
-0.0100104
0.0209056
0.0394385
0.0449263
0.0396685
0.0270441
0.0103264
-0.00784345
-0.0256125
-0.0419703
-0.0551308
-0.0659997
-0.0742384
-0.0799237
-0.0832733
-0.100094
-0.102592
-0.104812
-0.103202
-0.0966336
-0.0828732
-0.0613401
-0.0344217
-0.00725985
0.0151982
0.0296667
0.0352904
0.0330729
0.0249565
0.0130908
-0.000604777
-0.0146207
-0.0278624
-0.0393902
-0.0491483
-0.0569154
-0.0626631
-0.0664839
-0.086255
-0.0869399
-0.0868344
-0.0822675
-0.0748223
-0.0625532
-0.0456152
-0.0257129
-0.00595083
0.0106627
0.0219976
0.0272572
0.0268168
0.0217738
0.0135099
0.00338225
-0.00744292
-0.0180474
-0.027747
-0.0361591
-0.0431469
-0.0485912
-0.052496
-0.0724667
-0.0721384
-0.0706549
-0.0659105
-0.0585456
-0.04808
-0.0347752
-0.0198422
-0.0051815
0.00730177
0.0162028
0.0208781
0.0214138
0.0184156
0.0127599
0.00538706
-0.002834
-0.0111759
-0.0190764
-0.026149
-0.0322162
-0.0371386
-0.0408637
-0.0594791
-0.0587634
-0.0567531
-0.0523043
-0.0457957
-0.0371838
-0.0268062
-0.015514
-0.00452643
0.00493014
0.0119159
0.0159348
0.0169487
0.0152834
0.0114894
0.00620761
6.90605e-05
-0.00636853
-0.0126531
-0.0184536
-0.023542
-0.0278154
-0.0311909
-0.0476219
-0.0468
-0.0447605
-0.0409112
-0.0354954
-0.0286165
-0.0206077
-0.0120796
-0.00383313
0.00333154
0.00877926
0.012138
0.0133254
0.0125101
0.0100332
0.00632475
0.00183312
-0.00302564
-0.00789846
-0.0125088
-0.0166503
-0.0202363
-0.0231736
-0.0369704
-0.0361594
-0.0343705
-0.0312572
-0.0269592
-0.0216343
-0.015575
-0.00921397
-0.00308371
0.00228915
0.00647438
0.00919939
0.0103756
0.0100839
0.00853169
0.0060017
0.00280468
-0.000758252
-0.00442134
-0.00796861
-0.0112421
-0.0141251
-0.0165807
-0.0274103
-0.0266943
-0.0252927
-0.0229395
-0.019703
-0.0157565
-0.0113323
-0.00672757
-0.00229374
0.00162583
0.00474341
0.00686514
0.00791307
0.0079204
0.00700864
0.00535766
0.00317509
0.000670028
-0.00196667
-0.00457473
-0.007032
-0.00925217
-0.0112178
-0.0188183
-0.0182431
-0.0172709
-0.015647
-0.0133954
-0.0106811
-0.00766447
-0.00453762
-0.00152311
0.001166
0.00334549
0.00488519
0.00572488
0.00587297
0.0053954
0.00439921
0.00301409
0.00137522
-0.000390481
-0.00217402
-0.00389022
-0.0054786
-0.00692678
-0.0108691
-0.010457
-0.00994466
-0.00901874
-0.00768254
-0.00608749
-0.00432591
-0.00250508
-0.00074604
0.000836999
0.00214039
0.00308874
0.00364365
0.00380333
0.00359832
0.00308341
0.00232811
0.00140739
0.00039311
-0.00065349
-0.00168858
-0.0026791
-0.0035389
-0.00386844
-0.00361954
-0.00339196
-0.00307928
-0.00264315
-0.00212334
-0.00152824
-0.000904163
-0.000292495
0.000272404
0.000755278
0.00112953
0.00137907
0.00149854
0.00149348
0.00137844
0.00117437
0.000905972
0.000599557
0.000281417
-2.45585e-05
-0.000310084
-0.000620862
952.242
924.187
891.686
854.165
951.291
925.608
894.195
867.41
952.781
926.397
878.758
766.911
956.202
800.365
332.277
126.819
164.416
70.725
81.6408
88.989
47.1106
45.9759
48.54
190.349
38.1219
37.3569
45.4554
44.1293
36.6532
35.255
33.8014
32.5405
39.0321
37.1855
35.553
34.1429
60.7604
39.5748
55.8537
47.7395
404.325
142.044
401.732
351.705
462.636
456.273
454.201
452.055
42.6102
69.3582
47.6463
12.4029
-0.27238
-0.31855
-0.328828
-0.305069
1.06251
0.693892
0.349471
0.00905972
1.63246
1.70436
1.6847
0.952286
0.743807
0.0400272
-0.364791
-0.330893
-0.533221
-0.48
-0.360236
-0.352376
-0.51122
-0.470226
-0.420175
-0.383248
-0.484417
-0.450707
-0.418607
-0.388486
-0.452042
-0.423671
-0.396725
-0.371371
-0.414163
-0.390239
-0.367474
-0.345948
-0.373011
-0.353162
-0.334148
-0.31601
-0.331054
-0.315098
-0.299618
-0.284675
-0.289888
-0.277555
-0.265378
-0.253433
-0.25067
-0.24154
-0.232309
-0.223057
-0.214238
-0.207808
-0.201096
-0.194176
-0.181148
-0.176903
-0.172267
-0.167304
-0.151664
-0.149123
-0.146139
-0.142764
-0.125811
-0.124548
-0.122833
-0.120707
-0.103448
-0.103103
-0.102327
-0.101151
-0.0843116
-0.084592
-0.0844818
-0.084002
-0.0680667
-0.0687427
-0.0690781
-0.0690859
-0.0543457
-0.0552429
-0.05585
-0.0561751
-0.0427759
-0.0437632
-0.044512
-0.0450258
-0.0330278
-0.0340168
-0.034818
-0.0354309
-0.0248511
-0.0257851
-0.0265812
-0.0272365
-0.0180531
-0.0189005
-0.0196561
-0.0203164
-0.0124629
-0.013205
-0.0138948
-0.01453
-0.00791572
-0.00852893
-0.00912025
-0.00968866
-0.0041838
-0.0046084
-0.00505252
-0.00551559
-0.000915395
-0.00118412
-0.00151779
-0.00190957
773.996
636.74
265.518
160.092
186.531
200.741
249.763
493.151
467.453
305.749
313.275
299.489
267.868
273.909
262.286
223.517
169.653
85.042
95.9387
794.278
261.637
144.361
157.092
176.138
190.287
347.876
433.295
239.682
272.543
280.845
298.863
276.795
237.312
197.794
116.322
34.3047
6.13928
8.42448
364.229
136.947
143.421
156.693
217.016
359.42
357.419
315.969
187.512
271.166
289.168
262.198
220.532
156.083
53.2115
-0.694744
-5.04463
-6.4475
-1.41486
122.591
135.199
145.04
221.519
390.755
384.617
367.87
172.617
174.728
266.531
252.695
203.51
51.4327
1.96123
1.16289
-1.11401
-4.60958
-5.99613
-2.73989
112.698
266.614
392.965
408.058
424.569
385.375
201.653
177.335
167.715
219.881
148.059
1.74243
1.34977
1.67115
1.21389
1.46187
-2.30199
-2.67081
-1.01704
336.47
355.581
360.28
292.751
224.358
224.739
215.894
241.232
236.607
58.001
1.40215
1.0123
1.09479
1.77426
4.82472
4.14947
0.540922
0.223568
0.252468
34.1072
33.1974
34.5287
37.7619
76.3059
211.804
281.497
265.338
250.021
43.1047
0.538925
0.705998
0.781493
2.82394
18.06
4.29928
2.55264
1.58967
0.94
31.4155
32.3041
33.7312
36.1526
233.025
291.645
284.726
229.202
86.5681
2.81659
0.264001
0.457123
0.596441
7.4827
19.7461
11.0448
3.14463
2.05783
1.29904
32.4647
32.5291
33.7781
124.904
295.253
297.965
163.123
0.984904
-0.0148109
0.0335172
0.171656
0.269005
0.399409
10.6121
19.8948
22.1517
5.96352
4.70416
3.9547
33.1081
33.1333
87.994
298.955
298.268
116.538
0.64467
0.579261
0.132418
0.0634488
0.0541234
0.064119
0.0431844
0.213834
18.1959
20.8536
22.2026
12.5501
3.93543
198.879
178.571
243.079
190.744
40.6236
-0.396227
0.0274306
0.104801
0.0062072
-0.0350494
-0.0733961
-0.123655
-0.287801
-0.835926
1.03793
20.0216
22.0819
10.9998
1.85325
377.008
273.492
175.24
9.45352
-0.567461
-0.48104
-0.284767
-0.197645
-0.155394
-0.137107
-0.147368
-0.196941
-0.380911
-0.942321
-0.847912
12.7532
20.4678
2.63182
0.923416
-0.201209
-0.237182
-0.253872
-0.401331
-0.551701
-0.52573
-0.481584
-0.411128
-0.303994
-0.215305
-0.170491
-0.170834
-0.260675
-0.602582
-0.959454
-0.463286
1.5376
0.549263
0.801803
-0.237599
-0.209269
-0.217772
-0.2846
-0.438097
-0.594574
-0.630004
-0.547159
-0.39893
-0.250654
-0.15316
-0.105344
-0.0992315
-0.17168
-0.276526
-0.111566
0.225231
0.589907
0.709777
-0.2184
-0.168696
-0.107496
-0.163544
-0.374866
-0.584534
-0.643398
-0.560617
-0.400286
-0.230137
-0.109372
-0.0346104
0.0161359
0.0608441
0.134212
0.265796
0.42389
0.771204
1.77934
-0.0200459
-0.18067
-0.134393
-0.133261
-0.266493
-0.454051
-0.508475
-0.443229
-0.321961
-0.168146
-0.060199
0.0171394
0.0865702
0.162658
0.252508
0.343426
0.40211
0.595803
0.753825
0.287721
-0.149248
-0.175978
-0.179689
-0.225434
-0.30788
-0.334621
-0.295968
-0.217774
-0.107762
-0.0231522
0.0448668
0.11459
0.191457
0.267619
0.328083
0.362466
0.397996
0.370565
-0.100005
-0.170239
-0.204288
-0.198911
-0.224461
-0.257177
-0.260276
-0.220026
-0.146771
-0.0696855
-0.00362254
0.054534
0.117156
0.18367
0.244699
0.291679
0.339611
0.676953
0.390898
-0.339545
-0.275188
-0.228479
-0.21288
-0.215897
-0.218836
-0.203916
-0.16412
-0.10796
-0.0487861
0.00440187
0.054449
0.107363
0.158501
0.206613
0.24699
0.311494
0.646103
0.388547
-0.341387
-0.287804
-0.248819
-0.222694
-0.205181
-0.189941
-0.166136
-0.129672
-0.0841516
-0.0358433
0.00853822
0.0528764
0.111638
0.136517
0.168165
0.24073
0.536852
0.621867
0.348449
-0.331723
-0.285736
-0.248914
-0.219404
-0.194256
-0.170003
-0.142129
-0.107989
-0.0688558
-0.0275853
0.0106227
0.0538423
0.103474
0.127523
0.137954
0.314713
0.581901
0.560296
0.222078
-0.312092
-0.271808
-0.237818
-0.20822
-0.181118
-0.154556
-0.126145
-0.094183
-0.0591735
-0.0233624
0.0106686
0.0570065
0.0962113
0.11889
0.119347
0.279766
0.50562
0.213345
0.193992
-0.287168
-0.251793
-0.220954
-0.193133
-0.166974
-0.14104
-0.113825
-0.0844814
-0.0533308
-0.0219776
0.00867001
0.0569559
0.0926496
0.10618
0.111746
0.135011
0.146127
0.16137
0.171328
-0.26059
-0.230021
-0.202557
-0.177191
-0.152914
-0.128678
-0.103529
-0.0771774
-0.0499581
-0.0225248
0.00459458
0.045878
0.0885131
0.0892015
0.105313
0.118821
0.129425
0.139624
0.148554
-0.233844
-0.208032
-0.184081
-0.161416
-0.139347
-0.117226
-0.0945444
-0.0712976
-0.0478064
-0.0242535
-0.000300537
0.0285886
0.0702338
0.0780628
0.0938003
0.103915
0.1123
0.119684
0.126833
-0.207559
-0.186272
-0.165821
-0.145962
-0.126315
-0.10655
-0.0864575
-0.066171
-0.045719
-0.0256411
-0.00451294
0.0189305
0.0433465
0.0652528
0.0799904
0.0880849
0.0957641
0.102887
0.107249
-0.182278
-0.165133
-0.148042
-0.131002
-0.113867
-0.0965201
-0.0789232
-0.0612563
-0.0434552
-0.0258341
-0.00720237
0.0133866
0.0344352
0.0527874
0.0668126
0.0734908
0.0807371
0.0874055
0.0926088
-0.158484
-0.145031
-0.131062
-0.116726
-0.10204
-0.0870159
-0.0717025
-0.0562601
-0.0408542
-0.0250441
-0.00847032
0.00920606
0.0266925
0.0418338
0.0539526
0.0611805
0.0675962
0.0724601
0.0819899
-0.136494
-0.126228
-0.115056
-0.103215
-0.0908196
-0.0779519
-0.0646892
-0.0511513
-0.0374478
-0.023448
-0.00883033
0.0061169
0.0203398
0.0326953
0.0425963
0.0500858
0.0560536
0.059801
0.062971
-0.116487
-0.108896
-0.100161
-0.0905566
-0.0802414
-0.0693288
-0.057905
-0.0460663
-0.0339118
-0.0214695
-0.00879687
0.00362571
0.0151757
0.025298
0.0337513
0.0405357
0.0457715
0.0489471
0.0506077
-0.0985305
-0.0931287
-0.0864658
-0.0788135
-0.0703422
-0.0611774
-0.0514168
-0.0411646
-0.0305492
-0.0197128
-0.00890335
0.00136779
0.0108543
0.0191487
0.0263512
0.0321595
0.0366958
0.0394715
0.040739
-0.0825894
-0.0789311
-0.0739857
-0.0679982
-0.061134
-0.0535264
-0.0452925
-0.0365677
-0.0275133
-0.0183128
-0.00926405
-0.000788127
0.00703609
0.0139094
0.0199381
0.0248237
0.0285967
0.0311136
0.0321958
-0.0685497
-0.0662398
-0.0626841
-0.0580929
-0.0526243
-0.0464181
-0.0396136
-0.0323773
-0.0248698
-0.0172543
-0.00980925
-0.00284396
0.00360618
0.00928796
0.0142345
0.0183691
0.0215181
0.023677
0.0247099
-0.0562419
-0.0549463
-0.0524987
-0.0490804
-0.0448438
-0.039926
-0.0344774
-0.0286679
-0.0226152
-0.0164484
-0.0104143
-0.00475128
0.000463893
0.00512234
0.00925663
0.0126628
0.0152844
0.017075
0.0179926
-0.0454863
-0.0449437
-0.0433882
-0.0409796
-0.0378573
-0.0341339
-0.0299493
-0.0254441
-0.0206873
-0.015798
-0.0109993
-0.00648065
-0.00229155
0.00147182
0.00481492
0.00756288
0.00971219
0.0111665
0.0119047
-0.0361383
-0.0361615
-0.0353459
-0.0338272
-0.031712
-0.029069
-0.0260135
-0.0226486
-0.0190247
-0.0152678
-0.0115742
-0.00807577
-0.00481126
-0.00185861
0.000770829
0.00293206
0.00464945
0.00578698
0.00637045
-0.0280945
-0.0285516
-0.028361
-0.0276173
-0.0263796
-0.0246758
-0.0225985
-0.0202279
-0.017619
-0.014894
-0.0122038
-0.00962695
-0.00720006
-0.00498234
-0.00300015
-0.00136484
-4.81326e-05
0.000805224
0.00126115
-0.0212556
-0.0220411
-0.0223638
-0.0222636
-0.0217583
-0.0208563
-0.0196344
-0.0181588
-0.0164841
-0.0147067
-0.0129229
-0.0111781
-0.00950893
-0.00795995
-0.00656585
-0.0054054
-0.00445705
-0.00385421
-0.0035031
-0.0154888
-0.0164983
-0.0172113
-0.0176227
-0.0177265
-0.0175238
-0.0170713
-0.0164148
-0.0155942
-0.0146694
-0.0136949
-0.0127002
-0.011717
-0.0107782
-0.00991791
-0.00918749
-0.0085736
-0.00819184
-0.00792604
-0.0105896
-0.0117213
-0.0127295
-0.0135678
-0.0142072
-0.0146384
-0.014888
-0.0149773
-0.0149264
-0.0147644
-0.0145195
-0.014209
-0.0138543
-0.0134773
-0.0131045
-0.0127663
-0.0124557
-0.0122698
-0.0120748
-0.006319
-0.00754318
-0.00881506
-0.0100408
-0.0111725
-0.0121889
-0.0130867
-0.0138664
-0.0145296
-0.0150803
-0.0155226
-0.0158596
-0.0161001
-0.0162563
-0.0163438
-0.016377
-0.0163507
-0.0163401
-0.0161809
-0.00265167
-0.00393706
-0.0054085
-0.00696279
-0.00853472
-0.0100925
-0.0116073
-0.013059
-0.0144288
-0.0156921
-0.0168248
-0.0178108
-0.018648
-0.0193393
-0.0198916
-0.0203073
-0.02057
-0.0207231
-0.0205049
)
;

boundaryField
{
    leftWall
    {
        type            fixedFluxPressure;
        gradient        uniform 0;
        value           nonuniform List<scalar> 
50
(
985.49
987.737
992.208
999.177
1008.37
1018.66
1033.61
1052.9
1081.95
1071.89
1071.53
1162.71
1455.03
1683.48
1707.13
1596.64
1426.58
1454.9
1626.56
1547.48
435.108
138.41
1111.97
2138.15
1860.4
406.365
2.87559
1.22219
0.769575
0.714171
0.600363
0.451134
0.274996
0.112517
-0.00455588
-0.0738527
-0.10977
-0.122673
-0.12159
-0.112697
-0.100094
-0.086255
-0.0724667
-0.0594791
-0.0476219
-0.0369704
-0.0274103
-0.0188183
-0.0108691
-0.00386844
)
;
    }
    rightWall
    {
        type            fixedFluxPressure;
        gradient        uniform 0;
        value           nonuniform List<scalar> 
50
(
454.337
459.507
447.199
350.33
385.27
587.291
483.489
314.26
95.9387
8.42448
-1.41486
-2.73989
-1.01704
0.252468
0.94
1.29904
3.9547
3.93543
1.85325
0.923416
0.801803
0.709777
1.77934
0.753825
0.370565
0.390898
0.388547
0.348449
0.222078
0.193992
0.171328
0.148554
0.126833
0.107249
0.0926088
0.0819899
0.062971
0.0506077
0.040739
0.0321958
0.0247099
0.0179926
0.0119047
0.00637045
0.00126115
-0.0035031
-0.00792604
-0.0120748
-0.0161809
-0.0205049
)
;
    }
    lowerWall
    {
        type            fixedFluxPressure;
        gradient        uniform 0;
        value           nonuniform List<scalar> 
62
(
985.49
971.138
954.083
935.001
915.355
897.481
880.381
868.25
866.157
876.441
897.606
925.4
955.487
981.944
1002.62
1018.04
1037.49
1061.93
1084.1
1099.51
1107.16
1106.78
1099.66
1099.66
1097.41
1093.54
1088.22
1080.98
1071.67
1059.99
1047.57
952.242
924.187
891.686
854.165
657.907
657.741
658.521
659.537
657.41
590.776
648.466
691.362
657.907
659.221
669.056
630.154
563.69
526.711
533.144
569.739
604.623
597.556
586.525
554.533
524.619
509.255
504.12
492.148
463.747
434.494
454.337
)
;
    }
    atmosphere
    {
        type            totalPressure;
        rho             rho;
        psi             none;
        gamma           1;
        p0              uniform 0;
        value           nonuniform List<scalar> 
46
(
0
0
0
0
0
0
0
0
0
0
0
0
0
0
0
0
0
0
0
0
0
0
0
-3.5139e-05
-0.000130531
-0.000297237
-0.000547675
-0.00116567
-0.00240141
-0.00391956
-0.0056084
-0.00737119
-0.00918808
-0.0110126
-0.0128127
-0.0145558
-0.0161985
-0.0176989
-0.0190279
-0.0201812
-0.0211573
-0.0219609
-0.0225908
-0.0230208
-0.0233035
-0.0228601
)
;
    }
    defaultFaces
    {
        type            empty;
    }
}


// ************************************************************************* //
