/*--------------------------------*- C++ -*----------------------------------*\
| =========                 |                                                 |
| \\      /  F ield         | OpenFOAM: The Open Source CFD Toolbox           |
|  \\    /   O peration     | Version:  5.x                                   |
|   \\  /    A nd           | Web:      www.OpenFOAM.org                      |
|    \\/     M anipulation  |                                                 |
\*---------------------------------------------------------------------------*/
FoamFile
{
    version     2.0;
    format      ascii;
    class       surfaceScalarField;
    location    "1";
    object      phi;
}
// * * * * * * * * * * * * * * * * * * * * * * * * * * * * * * * * * * * * * //

dimensions      [0 3 -1 0 0 0 0];

internalField   nonuniform List<scalar> 
4432
(
5.55049e-06
-5.55049e-06
6.95058e-06
-1.40009e-06
4.14328e-06
2.8073e-06
7.75726e-07
3.36756e-06
1.02865e-06
-2.52923e-07
4.02984e-06
-3.0012e-06
5.96504e-06
-1.93519e-06
5.49484e-06
4.70191e-07
2.8491e-06
2.64575e-06
-1.58316e-06
4.43225e-06
-7.15276e-06
5.5696e-06
-1.26841e-05
5.5313e-06
-1.64244e-05
3.74034e-06
-1.87627e-05
2.33824e-06
-2.39561e-05
5.19345e-06
-3.31156e-05
9.15953e-06
-3.92727e-05
6.15702e-06
-3.58925e-05
-3.38016e-06
-2.78899e-05
-8.00263e-06
-1.97162e-05
-8.17371e-06
-1.18667e-05
-7.84946e-06
-4.37359e-06
-7.49312e-06
-4.37359e-06
8.04285e-08
-5.63092e-06
-1.26589e-06
-5.37742e-08
-3.26331e-06
4.80472e-06
-3.25769e-06
3.36194e-06
-4.83604e-07
-3.02701e-06
3.28488e-06
-6.76969e-06
5.60716e-06
-4.25746e-06
5.55534e-06
5.22016e-07
3.16337e-06
5.03773e-06
-1.2707e-06
8.86632e-06
-7.18888e-06
1.14878e-05
-1.36873e-05
1.20297e-05
-2.03553e-05
1.04083e-05
-2.79394e-05
9.92234e-06
-3.60894e-05
1.33434e-05
-4.02239e-05
1.32941e-05
-3.6237e-05
2.17005e-06
-2.84258e-05
-1.11913e-05
-2.12877e-05
-1.51407e-05
-1.49433e-05
-1.45181e-05
-8.67898e-06
-1.41138e-05
-2.93897e-06
-1.32331e-05
-7.31257e-06
-2.24162e-06
-3.38929e-06
-4.60349e-06
2.3081e-06
-5.52092e-06
5.72216e-06
-4.31079e-06
2.15181e-06
-1.29237e-06
-6.04542e-06
2.57191e-06
-1.0634e-05
5.21369e-06
-6.89924e-06
5.50432e-06
2.31393e-07
3.4341e-06
7.10796e-06
-6.2335e-07
1.29238e-05
-6.05279e-06
1.69172e-05
-1.22433e-05
1.82203e-05
-1.93363e-05
1.75012e-05
-2.7248e-05
1.78341e-05
-3.3032e-05
1.91274e-05
-3.2644e-05
1.29061e-05
-2.71296e-05
-3.34436e-06
-2.15955e-05
-1.67254e-05
-1.69568e-05
-1.97794e-05
-1.18455e-05
-1.96294e-05
-6.48127e-06
-1.9478e-05
-1.90894e-06
-1.78054e-05
-9.22151e-06
-2.01169e-06
-1.3776e-06
-3.81862e-06
4.11503e-06
-4.29172e-06
6.19526e-06
-3.33723e-06
1.19732e-06
-4.73423e-07
-8.90922e-06
3.02057e-06
-1.4128e-05
5.23998e-06
-9.11864e-06
5.48539e-06
-1.40106e-08
3.48675e-06
9.1066e-06
-6.27437e-07
1.70379e-05
-6.1427e-06
2.24325e-05
-1.21788e-05
2.42564e-05
-1.82542e-05
2.35766e-05
-2.35639e-05
2.31437e-05
-2.58205e-05
2.13841e-05
-2.38497e-05
1.09353e-05
-2.09371e-05
-6.25692e-06
-1.92983e-05
-1.83643e-05
-1.65093e-05
-2.25684e-05
-1.12479e-05
-2.48908e-05
-5.41587e-06
-2.53101e-05
-1.20019e-06
-2.20211e-05
-1.04217e-05
-3.29546e-07
-1.04805e-06
-9.6061e-07
4.74611e-06
-1.19154e-06
6.42619e-06
-3.34978e-07
3.40754e-07
2.37397e-06
-1.16182e-05
4.83955e-06
-1.65935e-05
6.06975e-06
-1.03488e-05
5.9863e-06
6.94255e-08
3.86727e-06
1.12256e-05
-5.2587e-07
2.14311e-05
-6.56266e-06
2.84693e-05
-1.29205e-05
3.06142e-05
-1.83389e-05
2.8995e-05
-2.14416e-05
2.62463e-05
-2.13481e-05
2.12906e-05
-1.97811e-05
9.36832e-06
-1.9642e-05
-6.39596e-06
-1.98139e-05
-1.81924e-05
-1.67945e-05
-2.55878e-05
-1.05475e-05
-3.11378e-05
-3.70575e-06
-3.21518e-05
-1.03789e-07
-2.56231e-05
-1.05255e-05
2.28227e-06
-3.33032e-06
3.18504e-06
3.84333e-06
3.23306e-06
6.37818e-06
4.293e-06
-7.19188e-07
6.81752e-06
-1.41427e-05
7.98126e-06
-1.77573e-05
7.96289e-06
-1.03305e-05
7.72462e-06
3.07689e-07
5.66472e-06
1.32855e-05
1.04429e-06
2.60515e-05
-5.69138e-06
3.52049e-05
-1.2898e-05
3.78209e-05
-1.87743e-05
3.48713e-05
-2.15866e-05
2.90587e-05
-2.13014e-05
2.10053e-05
-2.06503e-05
8.71723e-06
-2.12185e-05
-5.82771e-06
-2.08336e-05
-1.85774e-05
-1.73741e-05
-2.90474e-05
-1.07796e-05
-3.77322e-05
-2.627e-06
-4.03045e-05
1.10367e-06
-2.93537e-05
-9.42184e-06
5.58594e-06
-8.91625e-06
8.25221e-06
1.17705e-06
8.50681e-06
6.12358e-06
9.82436e-06
-2.03674e-06
1.2424e-05
-1.67424e-05
1.20321e-05
-1.73654e-05
1.12312e-05
-9.52951e-06
1.14896e-05
4.92236e-08
9.46118e-06
1.53139e-05
4.17006e-06
3.13426e-05
-3.52713e-06
4.29021e-05
-1.17416e-05
4.60353e-05
-1.86508e-05
4.17806e-05
-2.23686e-05
3.27765e-05
-2.29833e-05
2.162e-05
-2.28373e-05
8.57122e-06
-2.31453e-05
-5.5197e-06
-2.30315e-05
-1.86912e-05
-2.1355e-05
-3.07238e-05
-1.51806e-05
-4.39066e-05
-4.50921e-06
-5.09759e-05
1.6559e-06
-3.55188e-05
-7.76594e-06
9.38982e-06
-1.83061e-05
1.34149e-05
-2.84807e-06
1.40433e-05
5.49517e-06
1.53479e-05
-3.34131e-06
1.66478e-05
-1.80422e-05
1.50047e-05
-1.57223e-05
1.41994e-05
-8.72421e-06
1.43035e-05
-5.49361e-08
1.1741e-05
1.78765e-05
5.52951e-06
3.75541e-05
-2.89224e-06
5.13239e-05
-1.17058e-05
5.48489e-05
-1.9343e-05
4.94178e-05
-2.40353e-05
3.74688e-05
-2.54371e-05
2.30218e-05
-2.53741e-05
8.50831e-06
-2.59807e-05
-4.91319e-06
-2.81997e-05
-1.64721e-05
-2.92545e-05
-2.96691e-05
-2.30999e-05
-5.00612e-05
-9.44784e-06
-6.4628e-05
9.93376e-07
-4.59601e-05
-6.77256e-06
-1.98037e-06
1.98037e-06
4.016e-06
-5.99636e-06
2.61737e-05
-2.21577e-05
4.50962e-05
-1.89225e-05
5.26643e-05
-7.5681e-06
4.72801e-05
5.3842e-06
3.09094e-05
1.63707e-05
1.7595e-05
1.33145e-05
1.17108e-05
5.88421e-06
-3.54321e-07
1.20651e-05
-1.11636e-05
1.08093e-05
-1.89313e-05
7.76762e-06
-2.14861e-05
2.55483e-06
-1.61533e-05
-5.33282e-06
-6.9289e-06
-9.22435e-06
3.83791e-06
-1.07668e-05
1.20593e-05
-8.22137e-06
7.90028e-06
4.15899e-06
7.90028e-06
-1.08041e-06
3.06077e-06
1.04483e-05
-1.75251e-05
2.7713e-05
-3.94224e-05
4.20954e-05
-3.33049e-05
5.32363e-05
-1.8709e-05
5.81108e-05
5.09723e-07
5.02914e-05
2.419e-05
3.76035e-05
2.60024e-05
2.7161e-05
1.63267e-05
6.12849e-06
3.30976e-05
-1.05073e-05
2.74451e-05
-1.38965e-05
1.11568e-05
-9.8874e-06
-1.45421e-06
-6.87927e-06
-8.34098e-06
-7.77468e-06
-8.32892e-06
-3.86064e-06
-1.46809e-05
6.65902e-06
-1.8741e-05
1.21459e-05
-1.32789e-06
2.00462e-05
1.49535e-06
1.56542e-06
1.46989e-05
-3.07286e-05
2.25326e-05
-4.7256e-05
2.66665e-05
-3.74389e-05
3.36597e-05
-2.57022e-05
4.2522e-05
-8.3526e-06
4.29667e-05
2.37453e-05
3.66394e-05
3.23298e-05
2.66599e-05
2.63062e-05
1.32386e-05
4.65188e-05
2.87126e-06
3.78125e-05
9.46197e-09
1.40186e-05
-1.11788e-06
-3.26827e-07
-1.26398e-05
3.1809e-06
-2.7277e-05
6.30829e-06
-3.03346e-05
-1.16232e-05
-1.68552e-05
-3.22205e-05
3.43996e-06
-2.1623e-05
2.34861e-05
1.25457e-06
3.1086e-07
1.40535e-05
-4.35276e-05
1.71153e-05
-5.03178e-05
1.21167e-05
-3.24403e-05
1.20117e-05
-2.55972e-05
2.26454e-05
-1.89863e-05
2.71638e-05
1.92269e-05
2.40198e-05
3.54738e-05
1.31208e-05
3.72051e-05
1.13249e-05
4.83147e-05
1.63117e-05
3.28257e-05
6.90132e-06
2.3429e-05
-1.06145e-05
1.7189e-05
-2.72428e-05
1.98092e-05
-3.56508e-05
1.47163e-05
-4.07036e-05
-6.57045e-06
-3.71086e-05
-3.58155e-05
-1.23399e-05
-4.63917e-05
1.11463e-05
3.15971e-06
-2.84884e-06
1.55145e-05
-5.58823e-05
1.85015e-05
-5.33048e-05
8.5496e-06
-2.24884e-05
-2.8146e-06
-1.4233e-05
2.21848e-06
-2.40194e-05
9.54108e-06
1.19043e-05
5.6646e-06
3.93503e-05
-4.12735e-06
4.69971e-05
3.10698e-06
4.10804e-05
8.79127e-06
2.71415e-05
-4.83982e-06
3.706e-05
-2.25915e-05
3.49408e-05
-1.1982e-05
9.19958e-06
2.37127e-05
-2.09783e-05
3.28039e-05
-1.56617e-05
-4.24891e-06
1.23731e-06
-2.19323e-05
-2.87083e-05
-1.0786e-05
9.41933e-06
-1.22682e-05
1.99778e-05
-6.64408e-05
2.49446e-05
-5.82716e-05
1.96752e-05
-1.7219e-05
-1.6787e-06
7.12092e-06
-1.07473e-05
-1.49508e-05
-9.98333e-06
1.11403e-05
-1.70389e-05
4.64059e-05
-1.80102e-05
4.79684e-05
-9.32786e-06
3.2398e-05
-1.36195e-05
3.14331e-05
-1.81083e-05
4.15488e-05
5.82377e-06
1.10087e-05
5.76871e-05
-4.26638e-05
0.00010331
-6.66013e-05
0.000136019
-4.83705e-05
8.72675e-05
4.99888e-05
6.82221e-07
5.7877e-05
-1.01038e-05
1.51555e-05
-2.74237e-05
2.45179e-05
-7.58032e-05
2.82695e-05
-6.20231e-05
2.75771e-05
-1.65266e-05
8.35972e-07
3.3862e-05
-2.65487e-05
1.24339e-05
-3.4388e-05
1.89797e-05
-4.10276e-05
5.30455e-05
-3.6575e-05
4.35159e-05
-3.28774e-05
2.87004e-05
-2.66615e-05
2.52172e-05
2.5832e-06
1.23041e-05
5.51614e-05
-4.15695e-05
9.1751e-05
-7.92534e-05
0.000119239
-9.40893e-05
0.000156437
-8.55679e-05
0.000168645
3.77807e-05
6.1131e-05
0.000165391
5.10272e-05
2.11267e-05
-4.85504e-05
2.63035e-05
-8.098e-05
2.36874e-05
-5.94071e-05
1.15187e-05
-4.35784e-06
-1.99211e-05
6.53018e-05
-5.03716e-05
4.28843e-05
-6.74871e-05
3.60952e-05
-6.24159e-05
4.79742e-05
-4.80983e-05
2.91983e-05
-3.43031e-05
1.49052e-05
-4.24419e-06
-4.84175e-06
4.29092e-05
-3.48493e-05
8.06439e-05
-7.93042e-05
9.749e-05
-9.60994e-05
0.000106121
-0.00010272
0.000118963
-9.84103e-05
0.000161572
-4.82738e-06
0.000125905
0.000201057
0.000176932
3.35829e-05
-5.18889e-05
4.85417e-05
-1.78069e-05
4.80394e-05
5.99743e-06
4.56498e-05
-9.51713e-07
3.93561e-05
-1.17485e-05
3.19285e-05
-8.2947e-06
2.97815e-05
-6.57715e-06
3.0153e-05
-4.26474e-07
2.0783e-05
2.72465e-05
9.5181e-06
4.8819e-05
-1.15011e-05
7.23431e-05
-3.45175e-05
7.78653e-05
-5.13804e-05
6.62806e-05
-5.82261e-05
4.43145e-05
-5.86417e-05
2.34374e-05
-6.04864e-05
1.03529e-05
-6.83255e-05
2.9259e-06
-7.97421e-05
-5.05546e-06
-8.44985e-05
-2.49127e-05
-7.13584e-05
-6.32013e-05
-3.87961e-05
-9.71903e-05
-5.92106e-06
-7.88351e-05
-3.27721e-05
2.00784e-05
3.71518e-05
-8.90408e-05
5.9014e-05
-3.96691e-05
6.33956e-05
1.61584e-06
5.87534e-05
3.69047e-06
4.52038e-05
1.80112e-06
2.91362e-05
7.77288e-06
2.72477e-05
-4.68869e-06
3.07452e-05
-3.92389e-06
-2.04995e-05
7.84912e-05
-7.29331e-05
0.000101253
-0.000115483
0.000114893
-0.000136206
9.85884e-05
-0.000130728
6.08026e-05
-0.000114177
2.77633e-05
-0.000102222
1.14818e-05
-9.66029e-05
4.73418e-06
-9.39813e-05
3.04345e-07
-9.11325e-05
-7.90429e-06
-8.89671e-05
-2.70781e-05
-7.89277e-05
-7.32406e-05
-5.46405e-05
-0.000121477
-3.12751e-05
-0.000102201
-4.89286e-05
-1.51185e-05
2.45242e-05
-0.000113565
3.55352e-05
-5.06802e-05
3.88009e-05
-1.64986e-06
2.65534e-05
1.5938e-05
5.82756e-06
2.2527e-05
2.21827e-05
-8.58227e-06
-3.62176e-05
5.37116e-05
-0.000161052
0.000120911
-0.00024759
0.00016503
-0.000306573
0.000160235
-0.000326381
0.000134702
-0.00030155
7.37571e-05
-0.000253334
1.25866e-05
-0.000209328
-1.62424e-05
-0.000168252
-2.95944e-05
-0.000126305
-3.72127e-05
-8.33102e-05
-4.26908e-05
-4.99257e-05
-4.12888e-05
-3.64531e-05
-4.05508e-05
-4.06955e-05
-6.89982e-05
-4.56185e-05
-0.000116555
-4.49945e-05
-0.000102825
-5.80969e-05
-3.58261e-05
-1.31382e-05
-0.000100427
-3.96861e-05
-2.41323e-05
-5.8414e-05
1.70781e-05
-5.68823e-05
1.44063e-05
-8.56466e-05
5.12912e-05
-0.000177851
8.36226e-05
-0.000269047
0.000144907
-0.000344954
0.000196818
-0.000382134
0.00020221
-0.000400058
0.000178159
-0.00039456
0.000129204
-0.000372365
5.15618e-05
-0.000329824
-2.99536e-05
-0.000279024
-6.70426e-05
-0.000226327
-8.22918e-05
-0.000171073
-9.24662e-05
-0.00011527
-9.84942e-05
-6.58732e-05
-9.06856e-05
-3.25368e-05
-7.38872e-05
-2.8535e-05
-7.30001e-05
-4.78862e-05
-9.72033e-05
-6.87838e-05
-8.19269e-05
-4.691e-05
-7.99708e-05
-7.54545e-05
-2.49722e-05
-0.000152131
5.25443e-05
-0.000178529
4.34758e-05
-0.000232859
6.8736e-05
-0.000300441
0.000118874
-0.000375624
0.000158805
-0.0004218
0.000191084
-0.000425885
0.000200903
-0.000396273
0.000172597
-0.000356876
0.000138762
-0.000312798
8.51258e-05
-0.0002762
1.49647e-05
-0.000238135
-6.80186e-05
-0.000215442
-8.97356e-05
-0.00019799
-9.97443e-05
-0.000176073
-0.000114384
-0.000147008
-0.000127559
-0.000113806
-0.000123888
-8.05293e-05
-0.000107164
-6.41835e-05
-8.93459e-05
-8.40382e-05
-7.73487e-05
-0.000118483
-4.74823e-05
-2.22993e-06
-0.000163163
-8.72466e-05
6.22744e-05
-0.000186079
0.000151376
-0.000305149
0.000162546
-0.000371865
0.000135452
-0.00039426
0.000141269
-0.000422294
0.000186839
-0.000430321
0.000199111
-0.000382739
0.000153321
-0.000301721
9.15786e-05
-0.000227636
6.46778e-05
-0.000192242
4.97316e-05
-0.000182536
5.25808e-06
-0.000189585
-6.09691e-05
-0.000201758
-7.75624e-05
-0.000203491
-9.80121e-05
-0.000190971
-0.000126903
-0.0001654
-0.00015313
-0.000137089
-0.000152199
-0.000113186
-0.000131066
-0.000103475
-9.90576e-05
-0.000117642
-6.31812e-05
-0.000151905
-1.32193e-05
6.80977e-05
-0.000222233
-7.07735e-05
0.000133048
-0.000171952
0.000252555
-0.000323841
0.000314435
-0.000388014
0.000199625
-0.000415558
0.000168813
-0.00043644
0.000207721
-0.000392165
0.000154836
-0.000325899
8.70545e-05
-0.000280209
4.58887e-05
-0.000248712
3.31808e-05
-0.000225183
2.62028e-05
-0.000220078
1.52309e-07
-0.00019947
-8.1577e-05
-0.00023034
-4.66918e-05
-0.000221355
-0.000106997
-0.00020283
-0.000145428
-0.000183754
-0.000172206
-0.000162419
-0.000173534
-0.000143171
-0.000150313
-0.000132802
-0.000109427
-0.000141562
-5.44212e-05
-0.000177914
2.31326e-05
0.000114359
-0.000224175
-4.35625e-05
0.00017661
-0.000114379
0.000323372
-0.000271981
0.000472036
-0.000364869
0.000292513
-0.000405575
0.00020952
-0.000391497
0.000193643
-0.000348797
0.000112137
-0.000304689
4.29465e-05
-0.000269156
1.03552e-05
-0.000247567
1.15918e-05
-0.000229582
8.2175e-06
-0.000224073
-5.35617e-06
-0.000255496
-5.01547e-05
-0.000226868
-7.53194e-05
-0.000212117
-0.000121749
-0.000194103
-0.000163442
-0.000182725
-0.000183585
-0.000176938
-0.000179321
-0.000162143
-0.000165108
-0.00015032
-0.00012125
-0.00015119
-5.35505e-05
-0.000175791
4.77336e-05
9.65656e-05
-0.000157998
-2.1205e-05
0.000197815
-6.05304e-05
0.000362697
-0.00016685
0.000578356
-0.000243295
0.000368958
-0.000297055
0.00026328
-0.000305825
0.000202413
-0.000296667
0.000102979
-0.000284168
3.04471e-05
-0.000276137
2.32402e-06
-0.00025449
-1.00553e-05
-0.000231448
-1.48247e-05
-0.000213657
-2.31469e-05
-0.000215367
-4.84448e-05
-0.000208597
-8.20901e-05
-0.000204671
-0.000125674
-0.000197961
-0.000170153
-0.000188654
-0.000192892
-0.000178767
-0.000189208
-0.000173067
-0.000170808
-0.000160283
-0.000134035
-0.000145681
-6.81521e-05
-0.000113378
1.54309e-05
3.36189e-05
-5.04318e-05
-7.62764e-06
0.000205443
-2.62414e-05
0.000381311
-7.58112e-05
0.000627926
-0.000112447
0.000405594
-0.000117833
0.000268665
-0.000108381
0.000192962
-0.000112312
0.000106909
-0.000122679
4.08138e-05
-0.00012963
9.27568e-06
-0.000139521
-1.64588e-07
-0.000145728
-8.61825e-06
-0.000146462
-2.24125e-05
-0.000150314
-4.45932e-05
-0.000158848
-7.35561e-05
-0.000172134
-0.000112389
-0.000185632
-0.000156655
-0.000189628
-0.000188895
-0.000183963
-0.000194873
-0.000179412
-0.000175359
-0.00016218
-0.000151266
-0.000134211
-9.61218e-05
-7.76096e-05
-4.11703e-05
-2.82287e-05
-1.57618e-05
1.71415e-06
0.000203729
-5.37616e-06
0.000388401
-8.37556e-06
0.000630926
-1.99979e-05
0.000417216
-5.93726e-06
0.000254604
1.01211e-05
0.000176903
9.52467e-06
0.000107506
-7.47278e-06
5.78113e-05
-2.95866e-05
3.13891e-05
-4.60102e-05
1.62591e-05
-5.72437e-05
2.61529e-06
-6.59325e-05
-1.37239e-05
-7.41254e-05
-3.64005e-05
-8.69564e-05
-6.07252e-05
-0.000109851
-8.94945e-05
-0.000140851
-0.000125655
-0.000168411
-0.000161335
-0.000180974
-0.00018231
-0.000175809
-0.000180525
-0.000172694
-0.000154381
-0.000140792
-0.000128023
-9.82186e-05
-8.37438e-05
-6.43687e-05
-6.20786e-05
6.39701e-06
0.000197332
-4.78836e-06
0.000399587
1.66842e-05
0.000609453
1.8306e-05
0.000415594
2.63438e-05
0.000246566
3.97405e-05
0.000163507
4.06675e-05
0.000106579
2.59227e-05
7.25556e-05
9.51874e-06
4.7793e-05
-1.53771e-06
2.73159e-05
-6.8392e-06
7.9168e-06
-9.82858e-06
-1.07346e-05
-1.49145e-05
-3.13147e-05
-2.51131e-05
-5.05266e-05
-4.38724e-05
-7.07352e-05
-7.5088e-05
-9.44393e-05
-0.000115755
-0.000120668
-0.000151895
-0.00014617
-0.000171614
-0.000160805
-0.000171147
-0.000154848
-0.000166711
-0.00013246
-0.000131036
-0.000119418
-0.000106402
-8.90022e-05
1.66512e-06
0.000195667
-1.95784e-05
0.00042083
9.52838e-06
0.000580347
1.79252e-05
0.000407197
2.63538e-05
0.000238138
3.44235e-05
0.000155437
2.92866e-05
0.000111716
1.53755e-05
8.64665e-05
2.36851e-06
6.08001e-05
-5.20703e-06
3.48914e-05
-6.94056e-06
9.65013e-06
-4.5352e-06
-1.314e-05
-1.80085e-06
-3.4049e-05
-9.00251e-07
-5.14272e-05
-6.76866e-06
-6.48668e-05
-2.31844e-05
-7.80236e-05
-5.16487e-05
-9.22034e-05
-8.90306e-05
-0.000108788
-0.000125228
-0.000124607
-0.000149935
-0.000130141
-0.000155621
-0.000126774
-0.000151209
-0.00012383
-0.000119103
-0.000138508
-6.04269e-06
0.000201709
-4.08882e-05
0.000455675
-1.07801e-05
0.000550239
4.47243e-06
0.000391944
1.52202e-05
0.00022739
1.76706e-05
0.000152987
2.11164e-06
0.000127274
-1.52949e-05
0.000103873
-2.84759e-05
7.3981e-05
-3.4367e-05
4.07825e-05
-3.38608e-05
9.14396e-06
-2.77095e-05
-1.92914e-05
-1.97648e-05
-4.19936e-05
-1.16863e-05
-5.95057e-05
-5.07475e-06
-7.14783e-05
-4.57433e-06
-7.8524e-05
-1.39251e-05
-8.28527e-05
-3.45189e-05
-8.81942e-05
-6.32303e-05
-9.58955e-05
-8.86884e-05
-0.000104683
-0.000101693
-0.00011377
-0.000105898
-0.000119626
-0.000124849
-0.000100153
-1.24367e-05
0.000214146
-2.06578e-05
0.000463897
-1.49561e-05
0.000544537
6.00482e-07
0.000376388
4.5647e-06
0.000223425
-5.74714e-06
0.000163298
-3.01574e-05
0.000151685
-5.40174e-05
0.000127733
-6.99798e-05
8.99433e-05
-7.44701e-05
4.52727e-05
-6.91515e-05
3.82543e-06
-5.53307e-05
-3.3112e-05
-4.00122e-05
-5.73121e-05
-2.67316e-05
-7.27863e-05
-1.57147e-05
-8.24952e-05
-6.73457e-06
-8.75042e-05
-1.75957e-06
-8.78276e-05
-4.95651e-06
-8.49971e-05
-1.77828e-05
-8.30691e-05
-3.87612e-05
-8.37049e-05
-5.86814e-05
-9.38494e-05
-6.99996e-05
-0.000108308
-0.00012
-7.48486e-05
2.33248e-06
0.000211814
2.31242e-05
0.000443105
1.93883e-05
0.000548273
1.18392e-05
0.000383937
1.13556e-06
0.000234129
-2.72093e-05
0.000191643
-6.48924e-05
0.000189368
-9.97053e-05
0.000162546
-0.000122359
0.000112597
-0.000126615
4.9528e-05
-0.000112524
-1.02654e-05
-8.78837e-05
-5.77522e-05
-6.07963e-05
-8.43995e-05
-3.81063e-05
-9.54764e-05
-2.16476e-05
-9.89538e-05
-9.96344e-06
-9.91884e-05
-4.59339e-07
-9.73317e-05
6.91645e-06
-9.23728e-05
9.20314e-06
-8.53558e-05
5.32899e-06
-7.98309e-05
-8.11928e-06
-8.04013e-05
-2.45955e-05
-9.18315e-05
-0.000106602
-3.79937e-05
7.29566e-06
0.000204518
3.22036e-05
0.000418197
5.0563e-05
0.000529913
2.76295e-05
0.00040687
-1.75546e-07
0.000261934
-4.35497e-05
0.000235017
-9.4445e-05
0.000240263
-0.000139533
0.000207633
-0.000166303
0.000139368
-0.0001701
5.33247e-05
-0.000152732
-2.76333e-05
-0.000118341
-9.2143e-05
-7.94313e-05
-0.000123309
-4.62761e-05
-0.000128632
-2.25635e-05
-0.000122666
-7.12531e-06
-0.000114627
3.16012e-06
-0.000107617
1.1649e-05
-0.000100862
1.94772e-05
-9.31842e-05
2.5068e-05
-8.54219e-05
2.57065e-05
-8.10399e-05
1.68377e-05
-8.29627e-05
-9.22301e-05
2.46642e-06
7.32057e-06
0.000197197
3.1596e-05
0.000393921
6.05246e-05
0.000500985
3.98801e-05
0.000427515
4.83819e-06
0.000296976
-4.22867e-05
0.000282142
-9.58857e-05
0.000293862
-0.000140373
0.00025212
-0.0001673
0.000166295
-0.000174748
6.0773e-05
-0.000160722
-4.16598e-05
-0.000126896
-0.000125969
-8.43906e-05
-0.000165814
-4.55106e-05
-0.000167512
-1.76572e-05
-0.00015052
4.04282e-07
-0.000132688
1.13835e-05
-0.000118596
1.85138e-05
-0.000107992
2.47335e-05
-9.94041e-05
3.12753e-05
-9.19637e-05
3.63377e-05
-8.61023e-05
3.66697e-05
-8.32946e-05
-8.45709e-05
2.90106e-05
4.21245e-05
0.000155073
7.23569e-05
0.000363689
9.76029e-05
0.000475739
7.51584e-05
0.00044996
3.04021e-05
0.000341732
-1.08648e-05
0.000323409
-5.36947e-05
0.000336692
-8.8333e-05
0.000286758
-0.00011368
0.000191643
-0.000126716
7.3809e-05
-0.000119378
-4.89987e-05
-9.63764e-05
-0.00014897
-6.23449e-05
-0.000199845
-2.82741e-05
-0.000201582
-2.41412e-06
-0.00017638
1.37679e-05
-0.00014887
2.30981e-05
-0.000127927
2.83773e-05
-0.000113271
3.16429e-05
-0.00010267
3.44804e-05
-9.48011e-05
3.75725e-05
-8.91943e-05
3.99993e-05
-8.57213e-05
-8.44061e-05
3.98346e-05
3.4782e-05
0.00012029
8.84568e-05
0.000310014
0.000125195
0.000439
0.000121608
0.000453547
8.24149e-05
0.000380925
5.33194e-05
0.000352504
2.80037e-05
0.000362007
4.62958e-07
0.000314299
-2.10501e-05
0.000213156
-3.29042e-05
8.56631e-05
-3.28917e-05
-4.90112e-05
-2.48231e-05
-0.000157039
-1.0385e-05
-0.000214283
8.60677e-06
-0.000220574
2.42978e-05
-0.000192071
3.35371e-05
-0.00015811
3.81031e-05
-0.000132493
3.99888e-05
-0.000115157
4.04021e-05
-0.000103083
4.00571e-05
-9.44561e-05
3.94774e-05
-8.86145e-05
3.90231e-05
-8.5267e-05
-8.39086e-05
3.85256e-05
3.04189e-05
8.98717e-05
9.31577e-05
0.000247276
0.000146025
0.000386133
0.00016622
0.000433352
0.000147207
0.000399938
0.000131697
0.000368015
0.000127367
0.000366337
0.000115102
0.000326564
9.59307e-05
0.000232326
7.87783e-05
0.000102815
6.95268e-05
-3.97595e-05
6.52004e-05
-0.000152712
6.20461e-05
-0.000211129
6.01229e-05
-0.000218651
5.93772e-05
-0.000191325
5.79364e-05
-0.000156669
5.55099e-05
-0.000130066
5.26342e-05
-0.000112281
4.96488e-05
-0.000100098
4.66441e-05
-9.14512e-05
4.35494e-05
-8.55198e-05
4.03066e-05
-8.20241e-05
-8.05507e-05
3.69489e-05
1.80605e-05
7.18114e-05
8.87525e-05
0.000176583
0.000162917
0.000311968
0.000210816
0.000385454
0.00021911
0.000391643
0.000215701
0.000371424
0.000222193
0.000359845
0.000224002
0.000324755
0.000214082
0.000242246
0.000197863
0.000119035
0.000179108
-2.10042e-05
0.000159999
-0.000133603
0.000137605
-0.000188735
0.000115418
-0.000196464
9.70887e-05
-0.000172995
8.34427e-05
-0.000143023
7.32158e-05
-0.000119839
6.51835e-05
-0.000104249
5.86097e-05
-9.35237e-05
5.30245e-05
-8.58659e-05
4.79706e-05
-8.04658e-05
4.30074e-05
-7.70608e-05
-7.53874e-05
3.78444e-05
1.23408e-05
5.94706e-05
7.39848e-05
0.000114939
0.000166981
0.000218972
0.000244179
0.000308255
0.00028722
0.000348603
0.000301131
0.000357513
0.000311121
0.000349855
0.000318797
0.000317078
0.000317376
0.000243667
0.000305472
0.00013094
0.000279164
5.30386e-06
0.000243748
-9.81865e-05
0.000202787
-0.000147774
0.000162576
-0.000156253
0.000129428
-0.000139847
0.000105437
-0.000119032
8.85449e-05
-0.000102947
7.60908e-05
-9.17948e-05
6.6417e-05
-8.38498e-05
5.85859e-05
-7.80347e-05
5.19176e-05
-7.37973e-05
4.57586e-05
-7.09016e-05
-6.91832e-05
3.95546e-05
1.23273e-05
4.71433e-05
6.03003e-05
6.69666e-05
0.000151452
0.00012782
0.000248564
0.000211143
0.000319647
0.00027752
0.000359161
0.000317999
0.000380178
0.000328837
0.000391768
0.000305488
0.000393508
0.000241927
0.000380568
0.00014388
0.000349465
3.64071e-05
0.000299394
-4.81156e-05
0.000243633
-9.20138e-05
0.000191207
-0.000103827
0.000149562
-9.82029e-05
0.000119956
-8.94256e-05
9.92093e-05
-8.21999e-05
8.39801e-05
-7.65655e-05
7.22462e-05
-7.21159e-05
6.28476e-05
-6.86359e-05
5.50053e-05
-6.59548e-05
4.80642e-05
-6.39603e-05
-6.25578e-05
4.14389e-05
1.29515e-05
3.41916e-05
4.34324e-05
3.64856e-05
0.000113566
5.76856e-05
0.000206501
0.000118209
0.000291036
0.000192985
0.00035252
0.000256515
0.000391615
0.000289741
0.000413188
0.000283915
0.000418276
0.00023684
0.00040291
0.000159246
0.000364854
7.44628e-05
0.000308977
7.76133e-06
0.000249059
-3.20956e-05
0.000195576
-5.0344e-05
0.000154631
-5.7257e-05
0.00012537
-6.01649e-05
0.00010416
-6.09892e-05
8.81404e-05
-6.05464e-05
7.56021e-05
-5.95775e-05
6.54714e-05
-5.8505e-05
5.70187e-05
-5.75019e-05
4.96858e-05
-5.66273e-05
-5.58674e-05
4.29955e-05
7.09571e-06
2.70958e-05
2.01651e-05
2.3416e-05
5.86489e-05
1.92018e-05
0.000125651
5.12063e-05
0.000201751
0.000116885
0.000270272
0.000187995
0.000322522
0.000237491
0.000355429
0.000251009
0.000366948
0.00022532
0.000355014
0.000171181
0.000320503
0.000108974
0.000272347
5.59173e-05
0.000222542
1.77088e-05
0.000180148
-7.94961e-06
0.000147586
-2.46945e-05
0.000122945
-3.5524e-05
0.000103823
-4.18671e-05
8.86728e-05
-4.53965e-05
7.64413e-05
-4.73459e-05
6.63533e-05
-4.84169e-05
5.78372e-05
-4.89856e-05
5.04694e-05
-4.92594e-05
-4.93021e-05
4.39042e-05
-2.5204e-07
2.73477e-05
-2.63737e-06
2.58012e-05
4.72238e-06
1.18421e-05
3.54211e-05
2.05075e-05
8.73481e-05
6.49581e-05
0.000145572
0.000129771
0.000198455
0.000184607
0.000238657
0.000210807
0.000260218
0.00020376
0.000260178
0.000171221
0.000241597
0.000127555
0.000212884
8.46305e-05
0.000182862
4.77305e-05
0.000156308
1.86047e-05
0.000134253
-2.6393e-06
0.000115406
-1.66771e-05
9.95376e-05
-2.59987e-05
8.62551e-05
-3.2114e-05
7.50984e-05
-3.61892e-05
6.56324e-05
-3.89509e-05
5.74889e-05
-4.08421e-05
5.03796e-05
-4.215e-05
-4.29955e-05
4.4073e-05
-3.38507e-06
3.07328e-05
-1.33556e-05
3.57718e-05
-2.23905e-05
2.08769e-05
-2.28346e-05
2.09514e-05
-3.63608e-06
4.57595e-05
3.40422e-05
9.20928e-05
7.80795e-05
0.000140569
0.000119135
0.000169751
0.000148702
0.000174193
0.000163303
0.00015662
0.000164499
0.000126359
0.000157357
9.17723e-05
0.000146115
5.89728e-05
0.000132824
3.18962e-05
0.000118671
1.1513e-05
0.000105194
-3.20003e-06
9.27787e-05
-1.35831e-05
8.17566e-05
-2.10919e-05
7.20757e-05
-2.65083e-05
6.35837e-05
-3.04589e-05
5.61044e-05
-3.33628e-05
4.9471e-05
-3.55166e-05
-3.70653e-05
4.35409e-05
-3.95438e-06
3.46872e-05
-1.41574e-05
4.59746e-05
-2.76631e-05
3.43822e-05
-4.00783e-05
3.33665e-05
-4.16243e-05
4.73055e-05
-2.55072e-05
7.59755e-05
5.33241e-06
0.00010973
4.04086e-05
0.000134675
7.2625e-05
0.000141977
9.67191e-05
0.000132526
0.000111631
0.000111447
0.00011811
8.52938e-05
0.000117484
5.95988e-05
0.000111847
3.75333e-05
0.00010347
1.98899e-05
9.40679e-05
6.20193e-06
8.48071e-05
-4.32226e-06
7.60044e-05
-1.22891e-05
6.7905e-05
-1.84089e-05
6.05403e-05
-2.30942e-05
5.38826e-05
-2.67051e-05
4.78637e-05
-2.94977e-05
-3.16181e-05
4.24165e-05
-3.68115e-06
3.83682e-05
-1.08282e-05
5.31213e-05
-2.06726e-05
4.42264e-05
-3.13015e-05
4.39956e-05
-3.7615e-05
5.3619e-05
-3.26892e-05
7.10498e-05
-1.4809e-05
9.18496e-05
1.17964e-05
0.00010807
4.01801e-05
0.000113593
6.48895e-05
0.000107816
8.27206e-05
9.36165e-05
9.27406e-05
7.52739e-05
9.58845e-05
5.64549e-05
9.41291e-05
3.92886e-05
8.94437e-05
2.45754e-05
8.32567e-05
1.23891e-05
7.64542e-05
2.4804e-06
6.96501e-05
-5.4849e-06
6.30514e-05
-1.18101e-05
5.68277e-05
-1.68704e-05
5.10406e-05
-2.0918e-05
4.57015e-05
-2.41585e-05
-2.67143e-05
4.07977e-05
-3.2166e-06
4.15847e-05
-7.31869e-06
5.72233e-05
-1.26499e-05
4.95576e-05
-1.79628e-05
4.93087e-05
-2.10944e-05
5.67506e-05
-1.81492e-05
6.81048e-05
-6.65153e-06
8.0352e-05
1.15615e-05
8.9857e-05
3.24634e-05
9.26911e-05
5.16494e-05
8.86306e-05
6.6226e-05
7.90401e-05
7.52371e-05
6.62627e-05
7.92371e-05
5.24549e-05
7.94473e-05
3.90785e-05
7.70944e-05
2.69285e-05
7.31544e-05
1.63292e-05
6.83167e-05
7.31832e-06
6.31586e-05
-3.26682e-07
5.7875e-05
-6.52646e-06
5.27097e-05
-1.1705e-05
4.77744e-05
-1.59827e-05
4.31224e-05
-1.95063e-05
-2.23779e-05
3.87861e-05
-2.6322e-06
4.42168e-05
-4.60066e-06
5.91918e-05
-6.9374e-06
5.18945e-05
-8.69415e-06
5.10656e-05
-8.63081e-06
5.66873e-05
-5.0301e-06
6.45042e-05
3.27641e-06
7.20455e-05
1.59732e-05
7.71602e-05
3.04112e-05
7.82531e-05
4.39921e-05
7.50497e-05
5.48397e-05
6.81925e-05
6.21953e-05
5.89072e-05
6.61822e-05
4.84681e-05
6.73682e-05
3.78925e-05
6.64413e-05
2.78555e-05
6.40433e-05
1.87274e-05
6.07071e-05
1.06546e-05
5.675e-05
3.63049e-06
5.26159e-05
-2.39235e-06
4.84051e-05
-7.49427e-06
4.42545e-05
-1.1832e-05
4.02593e-05
-1.55111e-05
-1.85997e-05
3.64811e-05
-1.90901e-06
4.61258e-05
-2.46237e-06
5.97452e-05
-3.04688e-06
5.2479e-05
-3.09112e-06
5.11098e-05
-1.61594e-06
5.52122e-05
2.17737e-06
6.07109e-05
8.88189e-06
6.5341e-05
1.80315e-05
6.80105e-05
2.82455e-05
6.80392e-05
3.80219e-05
6.52734e-05
4.6193e-05
6.00214e-05
5.21603e-05
5.294e-05
5.58278e-05
4.48007e-05
5.74225e-05
3.6298e-05
5.73225e-05
2.79556e-05
5.5938e-05
2.0112e-05
5.36431e-05
1.29495e-05
5.07371e-05
6.53652e-06
4.74778e-05
8.66859e-07
4.40715e-05
-4.08796e-06
4.0627e-05
-8.38764e-06
3.72444e-05
-1.21285e-05
-1.53538e-05
3.39985e-05
-1.15586e-06
4.72817e-05
-7.64925e-07
5.93542e-05
-3.02804e-07
5.20168e-05
4.46277e-07
5.03606e-05
2.32861e-06
5.33299e-05
5.93295e-06
5.71066e-05
1.13876e-05
5.98863e-05
1.83037e-05
6.10945e-05
2.58613e-05
6.04816e-05
3.31563e-05
5.79784e-05
3.94443e-05
5.37335e-05
4.4276e-05
4.81084e-05
4.74987e-05
4.15781e-05
4.91826e-05
3.46143e-05
4.95296e-05
2.76087e-05
4.87968e-05
2.08448e-05
4.72446e-05
1.45018e-05
4.51061e-05
8.67495e-06
4.25752e-05
3.39776e-06
3.98456e-05
-1.35843e-06
3.70138e-05
-5.55581e-06
3.41821e-05
-9.29686e-06
-1.26085e-05
3.14368e-05
-4.58555e-07
4.77403e-05
5.62648e-07
5.83327e-05
1.57253e-06
5.10067e-05
2.78866e-06
4.91445e-05
4.78146e-06
5.13371e-05
7.9894e-06
5.38988e-05
1.24418e-05
5.5434e-05
1.78128e-05
5.57236e-05
2.35685e-05
5.4726e-05
2.91376e-05
5.24093e-05
3.4035e-05
4.88361e-05
3.79354e-05
4.42081e-05
4.06891e-05
3.88246e-05
4.22951e-05
3.30083e-05
4.28557e-05
2.70482e-05
4.25297e-05
2.11709e-05
4.14955e-05
1.55359e-05
3.99282e-05
1.02423e-05
3.79852e-05
5.34077e-06
3.57867e-05
8.40091e-07
3.34841e-05
-3.25328e-06
3.11389e-05
-6.95168e-06
-1.0303e-05
2.88334e-05
1.22971e-07
4.76171e-05
1.49846e-06
5.6957e-05
2.86068e-06
4.96445e-05
4.26647e-06
4.77387e-05
6.22169e-06
4.9382e-05
9.04779e-06
5.10727e-05
1.27115e-05
5.17703e-05
1.69535e-05
5.14816e-05
2.1416e-05
5.02635e-05
2.57308e-05
4.80945e-05
2.95767e-05
4.49901e-05
3.27196e-05
4.10652e-05
3.50303e-05
3.65139e-05
3.6479e-05
3.15595e-05
3.71131e-05
2.6414e-05
3.70291e-05
2.12549e-05
3.63477e-05
1.62172e-05
3.51957e-05
1.13943e-05
3.36931e-05
6.84344e-06
3.19412e-05
2.59203e-06
3.00545e-05
-1.3665e-06
2.80901e-05
-4.98733e-06
-8.33575e-06
2.61229e-05
5.93101e-07
4.70239e-05
2.14401e-06
5.54061e-05
3.64989e-06
4.81387e-05
5.10811e-06
4.62806e-05
6.96507e-06
4.75251e-05
9.44821e-06
4.85896e-05
1.24895e-05
4.87291e-05
1.58844e-05
4.80868e-05
1.93917e-05
4.67562e-05
2.27721e-05
4.4714e-05
2.581e-05
4.19522e-05
2.83366e-05
3.85386e-05
3.02476e-05
3.46028e-05
3.15049e-05
3.0302e-05
3.21265e-05
2.57924e-05
3.21692e-05
2.12121e-05
3.17129e-05
1.66734e-05
3.08467e-05
1.22606e-05
2.96589e-05
8.03124e-06
2.82305e-05
4.02041e-06
2.66255e-05
2.3845e-07
2.49293e-05
-3.29112e-06
-6.58332e-06
2.31769e-05
9.66868e-07