/*--------------------------------*- C++ -*----------------------------------*\
| =========                 |                                                 |
| \\      /  F ield         | OpenFOAM: The Open Source CFD Toolbox           |
|  \\    /   O peration     | Version:  5.x                                   |
|   \\  /    A nd           | Web:      www.OpenFOAM.org                      |
|    \\/     M anipulation  |                                                 |
\*---------------------------------------------------------------------------*/
FoamFile
{
    version     2.0;
    format      ascii;
    class       volVectorField;
    location    "1";
    object      U;
}
// * * * * * * * * * * * * * * * * * * * * * * * * * * * * * * * * * * * * * //

dimensions      [0 1 -1 0 0 0 0];

internalField   nonuniform List<vector> 
2268
(
(0.0344667 -0.0244935 0)
(0.083092 -0.0138252 0)
(0.0733893 0.0061566 0)
(0.0196132 0.0151138 0)
(-0.00277914 0.00511713 0)
(0.027382 -0.00642295 0)
(0.0606331 -0.00471832 0)
(0.0693995 0.00166577 0)
(0.0517883 0.00741602 0)
(0.0122451 0.0124557 0)
(-0.0467325 0.0156176 0)
(-0.114587 0.0142801 0)
(-0.17055 0.00541713 0)
(-0.198443 -0.00396695 0)
(-0.226125 0.00639647 0)
(-0.32173 0.0307232 0)
(-0.440008 0.0269259 0)
(-0.451724 -0.00485949 0)
(-0.362377 -0.0257211 0)
(-0.269201 -0.0284648 0)
(-0.17877 -0.0274495 0)
(-0.0893189 -0.0260544 0)
(-0.0220587 -0.0149781 0)
(0.00346293 -0.0350616 0)
(-0.00323038 -0.00460122 0)
(-0.0284205 0.0237754 0)
(-0.0504358 0.0213259 0)
(-0.0256022 -0.00703277 0)
(0.0173228 -0.0253658 0)
(0.0539129 -0.0161121 0)
(0.0683172 0.0032836 0)
(0.0545023 0.0211736 0)
(0.0165799 0.0363718 0)
(-0.0441019 0.0466421 0)
(-0.118104 0.0477417 0)
(-0.190888 0.0374343 0)
(-0.266817 0.0326473 0)
(-0.366338 0.0539875 0)
(-0.459086 0.0672996 0)
(-0.466328 0.0284675 0)
(-0.361566 -0.0368744 0)
(-0.274562 -0.0651996 0)
(-0.207249 -0.0643206 0)
(-0.133829 -0.062539 0)
(-0.064834 -0.059935 0)
(-0.0107826 -0.0348941 0)
(-0.0141675 -0.0245729 0)
(-0.0435165 0.00576212 0)
(-0.0684877 0.0289891 0)
(-0.0635919 0.0138959 0)
(-0.0330547 -0.0258997 0)
(0.00791943 -0.0478205 0)
(0.0478945 -0.0307501 0)
(0.0654069 0.0021422 0)
(0.0556422 0.0331342 0)
(0.0212495 0.0591218 0)
(-0.0343584 0.0769246 0)
(-0.101683 0.0820274 0)
(-0.174674 0.0760771 0)
(-0.259557 0.0763806 0)
(-0.355527 0.0898054 0)
(-0.403278 0.0703652 0)
(-0.352041 -0.00787579 0)
(-0.264271 -0.0820712 0)
(-0.216546 -0.0979578 0)
(-0.167176 -0.0929282 0)
(-0.102994 -0.0905861 0)
(-0.0494607 -0.0841695 0)
(-0.000554046 -0.0460739 0)
(-0.0132233 -0.0115598 0)
(-0.0383986 0.0175247 0)
(-0.0567347 0.0313063 0)
(-0.049417 0.00751859 0)
(-0.0232092 -0.0421407 0)
(0.016915 -0.0691753 0)
(0.0491939 -0.044925 0)
(0.064335 -6.53337e-07 0)
(0.0560484 0.043762 0)
(0.0220158 0.0808763 0)
(-0.0351595 0.105999 0)
(-0.102609 0.114481 0)
(-0.171805 0.111503 0)
(-0.238565 0.112489 0)
(-0.292515 0.111487 0)
(-0.300904 0.0654993 0)
(-0.252505 -0.0272314 0)
(-0.221322 -0.0952994 0)
(-0.210519 -0.113408 0)
(-0.163006 -0.117995 0)
(-0.0929178 -0.118454 0)
(-0.0365209 -0.106823 0)
(0.00374263 -0.0533094 0)
(-0.00171133 -0.00397755 0)
(-0.00868798 0.0244962 0)
(-0.0196893 0.033415 0)
(-0.0151795 0.00373624 0)
(0.0113252 -0.0575647 0)
(0.0459313 -0.085414 0)
(0.0611476 -0.0545413 0)
(0.070087 -0.000420751 0)
(0.0609257 0.0554408 0)
(0.0255003 0.104677 0)
(-0.0366472 0.138178 0)
(-0.110198 0.148662 0)
(-0.180406 0.142777 0)
(-0.232409 0.135076 0)
(-0.25126 0.117332 0)
(-0.237397 0.0562568 0)
(-0.217974 -0.0360831 0)
(-0.228215 -0.0984842 0)
(-0.218966 -0.128048 0)
(-0.160031 -0.148928 0)
(-0.0786775 -0.153302 0)
(-0.0125612 -0.129567 0)
(0.00751419 -0.0575806 0)
(0.0157017 -0.00814669 0)
(0.0341337 0.0245803 0)
(0.0324973 0.0345627 0)
(0.0352992 -0.000828805 0)
(0.0673622 -0.0702686 0)
(0.0947029 -0.0950952 0)
(0.0839855 -0.0576127 0)
(0.0883369 0.0020179 0)
(0.0808692 0.0688244 0)
(0.0455096 0.130802 0)
(-0.0212161 0.172016 0)
(-0.10513 0.183345 0)
(-0.184427 0.171391 0)
(-0.238057 0.149514 0)
(-0.249228 0.114811 0)
(-0.235704 0.048885 0)
(-0.236841 -0.0326136 0)
(-0.247401 -0.0979007 0)
(-0.2254 -0.147389 0)
(-0.166398 -0.18763 0)
(-0.0766643 -0.19589 0)
(0.00953624 -0.148686 0)
(0.0119845 -0.0560277 0)
(0.0376227 -0.0291264 0)
(0.0841158 0.0174541 0)
(0.0919829 0.0350154 0)
(0.0918451 -0.00622982 0)
(0.140896 -0.0838194 0)
(0.152145 -0.0973595 0)
(0.11918 -0.0530278 0)
(0.125902 0.00336687 0)
(0.125415 0.0748878 0)
(0.0865312 0.15195 0)
(0.00953369 0.212631 0)
(-0.0863887 0.228758 0)
(-0.177069 0.207242 0)
(-0.241813 0.164879 0)
(-0.262954 0.111663 0)
(-0.259569 0.0436029 0)
(-0.262344 -0.0313232 0)
(-0.266099 -0.101615 0)
(-0.260061 -0.165226 0)
(-0.221837 -0.219714 0)
(-0.120012 -0.239907 0)
(0.00805298 -0.166285 0)
(0.0239613 -0.0428622 0)
(0.0662165 -0.065628 0)
(0.137311 -0.00702943 0)
(0.151964 0.0296431 0)
(0.158468 -0.0161529 0)
(0.204691 -0.0976252 0)
(0.186008 -0.0922883 0)
(0.153088 -0.0507194 0)
(0.157509 0.000125784 0)
(0.155466 0.0949743 0)
(0.107061 0.179181 0)
(0.0199252 0.238597 0)
(-0.0827333 0.259875 0)
(-0.179015 0.240765 0)
(-0.253583 0.188812 0)
(-0.288226 0.121989 0)
(-0.290606 0.0490754 0)
(-0.288928 -0.02791 0)
(-0.306318 -0.0985821 0)
(-0.340711 -0.159571 0)
(-0.320042 -0.242026 0)
(-0.199711 -0.301142 0)
(-0.029201 -0.21135 0)
(0.0475442 -0.021362 0)
(0.0135536 0.0020725 0)
(-0.0595933 0.00160623 0)
(0.172699 -0.0562305 0)
(0.405298 -0.0446639 0)
(0.578889 -0.006391 0)
(0.620173 0.0284164 0)
(0.470824 0.0491035 0)
(0.267017 0.0322872 0)
(0.163283 0.010066 0)
(0.0741266 0.0265371 0)
(-0.0784237 0.0308607 0)
(-0.1861 0.0150979 0)
(-0.26299 -0.00637986 0)
(-0.230555 -0.027875 0)
(-0.128086 -0.0426197 0)
(-0.0193601 -0.0444869 0)
(0.0989985 -0.0238446 0)
(0.143178 0.0257515 0)
(0.0727946 0.0165014 0)
(-0.0623005 0.0140586 0)
(0.0392388 -0.0548847 0)
(0.22574 -0.169837 0)
(0.388758 -0.153449 0)
(0.537176 -0.0804578 0)
(0.667338 0.0134941 0)
(0.664218 0.102525 0)
(0.519097 0.102039 0)
(0.361918 0.0547023 0)
(0.224835 0.101544 0)
(-0.0770473 0.081775 0)
(-0.178693 0.0502468 0)
(-0.155623 0.0243367 0)
(-0.0641512 -0.0313503 0)
(-0.0808966 -0.0588915 0)
(-0.0865233 -0.0566323 0)
(-0.0156441 -0.0613682 0)
(0.144245 0.00897042 0)
(0.174746 0.0595105 0)
(-0.101722 0.0148565 0)
(0.136148 -0.118035 0)
(0.226423 -0.223203 0)
(0.264221 -0.190873 0)
(0.321 -0.117396 0)
(0.437711 -0.015378 0)
(0.525557 0.118665 0)
(0.497551 0.145321 0)
(0.35437 0.101811 0)
(0.247086 0.193584 0)
(0.0622801 0.164425 0)
(-0.016742 0.0611979 0)
(0.0209681 -0.0403935 0)
(-0.0412067 -0.0371337 0)
(-0.249535 0.00424277 0)
(-0.375771 -0.0583494 0)
(-0.336272 -0.121429 0)
(-0.0728251 -0.0283839 0)
(0.17418 0.115218 0)
(-0.112494 0.00248687 0)
(0.141578 -0.186526 0)
(0.202027 -0.237088 0)
(0.167308 -0.171639 0)
(0.0924632 -0.126442 0)
(0.176308 -0.0651164 0)
(0.312158 0.101773 0)
(0.358732 0.160761 0)
(0.202152 0.154943 0)
(0.100648 0.25192 0)
(0.15748 0.200146 0)
(0.176765 0.0895518 0)
(0.00179779 0.040136 0)
(-0.241419 0.0685758 0)
(-0.40182 0.0372417 0)
(-0.446615 -0.0998023 0)
(-0.479243 -0.219528 0)
(-0.358547 -0.184498 0)
(0.114692 0.124603 0)
(-0.0911543 -0.000831338 0)
(0.155148 -0.245372 0)
(0.221745 -0.241643 0)
(0.184144 -0.120462 0)
(-0.00233861 -0.104046 0)
(-0.0586243 -0.113619 0)
(0.0908835 0.0699852 0)
(0.169055 0.173947 0)
(-0.0267959 0.210695 0)
(-0.0466003 0.237487 0)
(0.104592 0.126584 0)
(0.0986491 0.138237 0)
(-0.210199 0.13065 0)
(-0.312818 0.110715 0)
(0.0128564 0.0689587 0)
(0.50407 0.0663839 0)
(0.262749 -0.11967 0)
(-0.346348 -0.229295 0)
(-0.0949607 -0.0172635 0)
(-0.0156695 -0.0281684 0)
(0.209271 -0.295827 0)
(0.267176 -0.266893 0)
(0.284661 -0.0808089 0)
(0.148619 -0.0139177 0)
(-0.180829 -0.10248 0)
(-0.106109 0.0450468 0)
(-0.0787394 0.214554 0)
(-0.270513 0.247493 0)
(-0.148106 0.156535 0)
(-0.100596 0.128516 0)
(-0.192925 0.209445 0)
(-0.247535 0.177713 0)
(0.360062 -0.0296298 0)
(0.977933 -0.209362 0)
(1.32127 -0.155526 0)
(1.85663 0.187715 0)
(0.068187 -0.0452311 0)
(-0.0329045 -0.0851599 0)
(0.0519204 -0.101888 0)
(0.270239 -0.349789 0)
(0.299981 -0.304184 0)
(0.314362 -0.104962 0)
(0.326751 0.0705126 0)
(-0.311032 -0.0146676 0)
(-0.363763 0.09006 0)
(-0.386365 0.257592 0)
(-0.4841 0.215453 0)
(-0.394797 0.149653 0)
(-0.368799 0.178983 0)
(-0.252051 0.181368 0)
(0.299417 -0.0567891 0)
(0.922714 -0.339804 0)
(1.27208 -0.436558 0)
(1.38077 -0.37426 0)
(2.26345 0.294491 0)
(1.45258 0.660605 0)
(0.0330999 0.0203942 0)
(0.160159 -0.195728 0)
(0.304183 -0.390403 0)
(0.283145 -0.319909 0)
(0.208202 -0.0965894 0)
(0.136998 0.230713 0)
(-0.573266 0.130928 0)
(-0.740672 0.129714 0)
(-0.704651 0.254059 0)
(-0.647753 0.197516 0)
(-0.497213 0.143554 0)
(-0.25966 0.0981724 0)
(0.149976 -0.0358673 0)
(0.786099 -0.325344 0)
(1.0706 -0.443964 0)
(1.18791 -0.503005 0)
(1.19405 -0.478845 0)
(1.50242 0.00376308 0)
(2.19643 0.931084 0)
(0.67523 0.433935 0)
(0.105706 -0.145405 0)
(0.236253 -0.0231276 0)
(0.258404 0.0386424 0)
(0.258879 -0.0249699 0)
(0.249792 -0.0901044 0)
(0.185702 -0.0654976 0)
(0.150963 -0.0543566 0)
(0.147857 -0.0136628 0)
(0.14676 0.0486125 0)
(0.093657 0.175139 0)
(0.00902646 0.280728 0)
(-0.1283 0.309416 0)
(-0.239286 0.282093 0)
(-0.295799 0.214956 0)
(-0.312332 0.126547 0)
(-0.311498 0.0375229 0)
(-0.33521 -0.0235117 0)
(-0.401977 -0.0585939 0)
(-0.463047 -0.146489 0)
(-0.438572 -0.32193 0)
(-0.30602 -0.449531 0)
(-0.123153 -0.349883 0)
(0.054082 -0.116797 0)
(0.0714254 -0.403159 0)
(0.282128 -0.159713 0)
(0.354392 0.0413598 0)
(0.345528 0.0210912 0)
(0.283968 -0.0434712 0)
(0.214514 -0.0217303 0)
(0.0754806 -0.00927324 0)
(0.150951 -0.0115389 0)
(0.128421 0.198584 0)
(-0.331326 0.373179 0)
(-0.54639 0.514219 0)
(-0.698624 0.529836 0)
(-0.708691 0.423771 0)
(-0.621322 0.227147 0)
(-0.549165 0.102587 0)
(-0.516131 0.0676232 0)
(-0.505962 0.0559904 0)
(-0.505817 -0.014077 0)
(-0.503746 -0.179137 0)
(-0.455127 -0.429697 0)
(-0.34953 -0.63006 0)
(-0.243799 -0.51459 0)
(-0.111005 -0.214414 0)
(-0.00800211 -0.637633 0)
(0.201094 -0.3393 0)
(0.23526 -0.045903 0)
(0.1993 0.00930569 0)
(0.102454 0.0760487 0)
(-0.0535824 0.108014 0)
(0.223052 -0.0145607 0)
(-0.626232 0.112071 0)
(-1.02813 0.724718 0)
(-1.59669 0.787049 0)
(-1.79935 0.788501 0)
(-1.7275 0.558385 0)
(-1.41535 0.24541 0)
(-1.20314 0.111321 0)
(-0.996816 0.0481264 0)
(-0.783951 0.00124633 0)
(-0.566697 -0.0443096 0)
(-0.353353 -0.06045 0)
(-0.221371 -0.100675 0)
(-0.157818 -0.361923 0)
(-0.228983 -0.675916 0)
(-0.284437 -0.581959 0)
(-0.222433 -0.307579 0)
(-0.124188 -0.641073 0)
(-0.0796206 -0.267916 0)
(-0.268719 0.0314917 0)
(-0.374107 0.150064 0)
(-0.267968 0.0986438 0)
(-0.787252 -0.102405 0)
(-1.03944 0.537435 0)
(-1.77175 0.935482 0)
(-1.93781 1.0841 0)
(-2.14516 0.966757 0)
(-2.18685 0.71035 0)
(-2.10531 0.271843 0)
(-1.90134 -0.0891315 0)
(-1.60977 -0.300285 0)
(-1.32804 -0.367348 0)
(-1.05217 -0.401861 0)
(-0.773429 -0.418808 0)
(-0.502051 -0.358601 0)
(-0.243828 -0.272538 0)
(-0.0653218 -0.317895 0)
(-0.217821 -0.576589 0)
(-0.360125 -0.523902 0)
(-0.404947 -0.341548 0)
(-0.268846 -0.326442 0)
(-0.638121 0.0858225 0)
(-1.02116 0.209641 0)
(-1.00232 0.13231 0)
(-1.40317 0.592639 0)
(-1.83727 0.863886 0)
(-2.14668 1.06227 0)
(-2.34813 1.15612 0)
(-2.19453 1.01999 0)
(-2.02459 0.837747 0)
(-1.84978 0.515741 0)
(-1.63923 0.0991388 0)
(-1.30968 -0.280089 0)
(-1.17206 -0.439823 0)
(-1.08972 -0.525362 0)
(-1.00349 -0.592279 0)
(-0.871821 -0.63598 0)
(-0.703279 -0.612746 0)
(-0.505433 -0.534496 0)
(-0.34007 -0.475774 0)
(-0.385557 -0.474342 0)
(-0.550229 -0.347274 0)
(-0.738881 -0.124141 0)
(-0.284511 0.102684 0)
(-0.80054 0.511567 0)
(-1.36152 0.487295 0)
(-1.83332 0.547007 0)
(-2.0491 0.631247 0)
(-2.18361 0.833169 0)
(-2.31671 1.11431 0)
(-2.28197 1.12692 0)
(-1.82495 0.89115 0)
(-1.38595 0.778799 0)
(-1.11186 0.641495 0)
(-0.943236 0.27282 0)
(-1.03566 -0.319634 0)
(-1.07224 -0.495795 0)
(-1.10533 -0.59007 0)
(-1.07251 -0.695263 0)
(-0.962332 -0.776699 0)
(-0.80862 -0.760567 0)
(-0.654715 -0.655127 0)
(-0.556284 -0.518455 0)
(-0.57296 -0.375239 0)
(-0.697613 -0.168553 0)
(-0.957629 0.126123 0)
(-0.215126 0.517615 0)
(-0.707542 1.06739 0)
(-1.35407 1.11167 0)
(-1.92965 0.774788 0)
(-2.14734 0.77208 0)
(-2.36236 1.01903 0)
(-2.26752 0.872936 0)
(-1.88217 0.444876 0)
(-1.59344 0.123388 0)
(-1.40083 -0.0750901 0)
(-1.2588 -0.21373 0)
(-1.18715 -0.346846 0)
(-1.17973 -0.442493 0)
(-1.12279 -0.375746 0)
(-1.23927 -0.584757 0)
(-1.12219 -0.800502 0)
(-1.03613 -0.918458 0)
(-0.920681 -0.8872 0)
(-0.813396 -0.759258 0)
(-0.726142 -0.552667 0)
(-0.706018 -0.306051 0)
(-0.816039 0.0296694 0)
(-1.11413 0.556727 0)
(-0.118569 0.842764 0)
(-0.488636 1.57724 0)
(-0.970277 1.98592 0)
(-1.7642 1.14736 0)
(-2.06624 0.992623 0)
(-2.18439 1.19531 0)
(-1.99846 0.769578 0)
(-1.72831 0.435909 0)
(-1.52103 0.274689 0)
(-1.38074 0.290262 0)
(-1.27729 0.298386 0)
(-1.19995 0.211382 0)
(-1.28787 -0.31004 0)
(-1.3252 -0.202778 0)
(-1.17852 -0.514926 0)
(-1.07084 -0.76334 0)
(-1.0052 -0.960181 0)
(-0.972028 -0.96244 0)
(-0.910248 -0.845358 0)
(-0.829517 -0.611093 0)
(-0.777917 -0.265321 0)
(-0.850669 0.225411 0)
(-0.986056 0.653384 0)
(-0.0538669 1.03772 0)
(-0.270177 1.89922 0)
(-0.544547 2.96912 0)
(-1.13862 1.85969 0)
(-1.39807 1.24878 0)
(-1.64548 0.95942 0)
(-1.67793 0.565326 0)
(-1.54782 0.168502 0)
(-1.50462 -0.076496 0)
(-1.43506 -0.0962682 0)
(-1.27126 -0.0916616 0)
(-1.17974 -0.143485 0)
(-1.15378 -0.311583 0)
(-1.1377 -0.473685 0)
(-1.11465 -0.691034 0)
(-1.08759 -0.884738 0)
(-1.0299 -1.00302 0)
(-0.983408 -0.99052 0)
(-0.958018 -0.88879 0)
(-0.899375 -0.677583 0)
(-0.811779 -0.304445 0)
(-0.716987 0.273151 0)
(-0.488543 0.430753 0)
(-0.0568664 1.11866 0)
(-0.0808014 2.04815 0)
(-0.236127 3.46874 0)
(-0.522579 2.30501 0)
(-0.577031 1.54762 0)
(-0.680347 1.12095 0)
(-0.594651 0.521571 0)
(-0.628051 0.111289 0)
(-0.628228 0.0252482 0)
(-0.710138 -0.0396871 0)
(-0.767732 -0.0655877 0)
(-0.7849 -0.123915 0)
(-0.790035 -0.262688 0)
(-0.822013 -0.442113 0)
(-0.885089 -0.681839 0)
(-0.967219 -0.920263 0)
(-1.01728 -1.05863 0)
(-1.0052 -1.04695 0)
(-0.988741 -0.934692 0)
(-0.934733 -0.72476 0)
(-0.812389 -0.416758 0)
(-0.598587 -0.104829 0)
(-0.194706 -0.0983384 0)
(-0.110921 1.12866 0)
(0.0852401 2.08545 0)
(-0.0791264 3.49915 0)
(-0.0574751 2.31047 0)
(-0.0934806 1.47873 0)
(0.00461825 1.08706 0)
(0.0675042 0.647481 0)
(0.0310585 0.305528 0)
(-0.0836581 0.145302 0)
(-0.201735 0.0595015 0)
(-0.280365 -0.00592471 0)
(-0.333853 -0.088109 0)
(-0.372077 -0.210129 0)
(-0.421437 -0.350497 0)
(-0.515228 -0.53367 0)
(-0.66601 -0.764857 0)
(-0.841399 -0.970243 0)
(-0.951234 -1.05248 0)
(-0.98021 -0.987883 0)
(-0.96785 -0.829165 0)
(-0.838494 -0.570345 0)
(-0.632218 -0.303212 0)
(-0.432558 -0.196761 0)
(-0.161266 1.09512 0)
(0.179135 2.11018 0)
(-0.112504 3.36018 0)
(0.185419 2.25255 0)
(0.0531056 1.35752 0)
(0.196853 0.920914 0)
(0.218052 0.581582 0)
(0.199202 0.360619 0)
(0.0998039 0.224506 0)
(0.0178587 0.138109 0)
(-0.0284606 0.053928 0)
(-0.0458916 -0.0419732 0)
(-0.0594865 -0.14783 0)
(-0.102312 -0.264882 0)
(-0.173839 -0.399806 0)
(-0.301224 -0.565674 0)
(-0.499135 -0.75037 0)
(-0.731898 -0.909351 0)
(-0.900951 -0.970491 0)
(-0.959265 -0.897049 0)
(-0.932344 -0.748577 0)
(-0.779879 -0.555091 0)
(-0.579127 -0.414857 0)
(-0.177291 1.01598 0)
(0.189227 2.20687 0)
(-0.254319 3.21171 0)
(0.229498 2.2242 0)
(0.0151431 1.31146 0)
(0.220775 0.850692 0)
(0.163978 0.569522 0)
(0.134424 0.422163 0)
(0.0428013 0.297724 0)
(-0.0122105 0.18049 0)
(-0.0366784 0.0609754 0)
(-0.0323215 -0.0558165 0)
(-0.0178426 -0.158948 0)
(-0.00401746 -0.24565 0)
(-0.00801552 -0.327755 0)
(-0.0666155 -0.428504 0)
(-0.178058 -0.539477 0)
(-0.369141 -0.664745 0)
(-0.599248 -0.771055 0)
(-0.753859 -0.800795 0)
(-0.838135 -0.760852 0)
(-0.862778 -0.753337 0)
(-0.77977 -0.737709 0)
(-0.234666 1.03205 0)
(0.146154 2.33003 0)
(-0.442116 3.03454 0)
(0.176355 2.16038 0)
(-0.0655912 1.25494 0)
(0.181719 0.819921 0)
(0.0307023 0.634956 0)
(-0.0274579 0.513604 0)
(-0.126964 0.370184 0)
(-0.17382 0.213392 0)
(-0.187224 0.0590104 0)
(-0.169403 -0.0798349 0)
(-0.129515 -0.197976 0)
(-0.0843541 -0.293174 0)
(-0.041429 -0.355105 0)
(-0.0146039 -0.395827 0)
(-0.0340557 -0.44282 0)
(-0.112985 -0.504224 0)
(-0.263262 -0.575375 0)
(-0.416582 -0.626199 0)
(-0.525382 -0.640869 0)
(-0.577112 -0.620692 0)
(-0.533219 -0.603967 0)
(-0.386454 1.16855 0)
(0.225758 2.58683 0)
(-0.40241 2.92737 0)
(0.156095 2.05769 0)
(-0.0818042 1.20196 0)
(0.0953551 0.837574 0)
(-0.127127 0.746649 0)
(-0.228896 0.626554 0)
(-0.347783 0.454034 0)
(-0.398 0.25363 0)
(-0.392546 0.0562935 0)
(-0.339265 -0.113649 0)
(-0.256141 -0.24903 0)
(-0.17595 -0.347599 0)
(-0.111652 -0.41382 0)
(-0.0589437 -0.44702 0)
(-0.0156789 -0.447686 0)
(-0.00475443 -0.444688 0)
(-0.0479473 -0.461599 0)
(-0.145352 -0.501843 0)
(-0.273509 -0.578606 0)
(-0.353976 -0.647602 0)
(-0.38315 -0.682512 0)
(-0.465082 1.17572 0)
(0.319591 2.43894 0)
(0.0827441 2.94219 0)
(0.183707 2.0362 0)
(0.00330217 1.21584 0)
(-0.00669732 0.940764 0)
(-0.27633 0.908664 0)
(-0.453999 0.775362 0)
(-0.621689 0.548893 0)
(-0.68594 0.272235 0)
(-0.652918 0.00142142 0)
(-0.543063 -0.219633 0)
(-0.396119 -0.360545 0)
(-0.258532 -0.439893 0)
(-0.153062 -0.482785 0)
(-0.0805659 -0.503046 0)
(-0.0270946 -0.502084 0)
(0.0209624 -0.474276 0)
(0.0523719 -0.440321 0)
(0.0523235 -0.420081 0)
(-0.00559131 -0.446529 0)
(-0.0896945 -0.528426 0)
(-0.170487 -0.613449 0)
(-0.46321 1.10731 0)
(0.370716 2.28727 0)
(0.222325 2.92749 0)
(0.212597 2.11607 0)
(0.0973384 1.31777 0)
(-0.0868779 1.13526 0)
(-0.396084 1.14295 0)
(-0.656645 0.990326 0)
(-0.857621 0.687115 0)
(-0.922678 0.288933 0)
(-0.876807 -0.102486 0)
(-0.731981 -0.403526 0)
(-0.526385 -0.556111 0)
(-0.327405 -0.59869 0)
(-0.174824 -0.594546 0)
(-0.0720761 -0.575974 0)
(-0.00710098 -0.55473 0)
(0.0393387 -0.525589 0)
(0.0844071 -0.481964 0)
(0.12462 -0.438735 0)
(0.14303 -0.422892 0)
(0.118295 -0.455798 0)
(0.0532304 -0.526503 0)
(-0.404628 0.998953 0)
(0.409358 2.23095 0)
(0.140797 2.80444 0)
(0.300298 2.2436 0)
(0.176883 1.48837 0)
(-0.0919125 1.38913 0)
(-0.398159 1.42544 0)
(-0.67684 1.21739 0)
(-0.864966 0.76973 0)
(-0.929092 0.245746 0)
(-0.901813 -0.229654 0)
(-0.769472 -0.623327 0)
(-0.5703 -0.803328 0)
(-0.337778 -0.810459 0)
(-0.158602 -0.742888 0)
(-0.0378668 -0.671387 0)
(0.0363525 -0.613527 0)
(0.0819677 -0.567308 0)
(0.114622 -0.525415 0)
(0.148791 -0.482747 0)
(0.183383 -0.447998 0)
(0.202625 -0.438533 0)
(0.181752 -0.46332 0)
(-0.145683 0.883887 0)
(0.393082 2.08695 0)
(0.400238 2.62692 0)
(0.543654 2.37264 0)
(0.350315 1.7116 0)
(0.0569756 1.63346 0)
(-0.193233 1.69963 0)
(-0.434964 1.4302 0)
(-0.58207 0.917587 0)
(-0.655087 0.311834 0)
(-0.639198 -0.322039 0)
(-0.546703 -0.803358 0)
(-0.43938 -1.02743 0)
(-0.241172 -1.02351 0)
(-0.0747989 -0.897772 0)
(0.0352491 -0.769173 0)
(0.101733 -0.671557 0)
(0.139854 -0.601505 0)
(0.161115 -0.549349 0)
(0.175932 -0.509452 0)
(0.191381 -0.478948 0)
(0.20906 -0.458666 0)
(0.216735 -0.452777 0)
(-0.0171655 0.822039 0)
(0.383644 1.87807 0)
(0.533979 2.50682 0)
(0.734034 2.46061 0)
(0.613802 1.95621 0)
(0.355583 1.83219 0)
(0.204959 1.90709 0)
(0.0306189 1.62214 0)
(-0.0789557 1.07507 0)
(-0.164356 0.397383 0)
(-0.170828 -0.292183 0)
(-0.117085 -0.85844 0)
(-0.0955097 -1.15404 0)
(-0.0181822 -1.17081 0)
(0.0855623 -1.0161 0)
(0.154042 -0.84178 0)
(0.191617 -0.711217 0)
(0.20937 -0.622072 0)
(0.215409 -0.559218 0)
(0.215282 -0.514004 0)
(0.212421 -0.483804 0)
(0.209871 -0.466597 0)
(0.208006 -0.459079 0)
(0.00725857 0.616213 0)
(0.358213 1.49315 0)
(0.613193 2.27681 0)
(0.876421 2.44846 0)
(0.90261 2.13413 0)
(0.744684 1.95528 0)
(0.682582 1.99302 0)
(0.615579 1.76457 0)
(0.540389 1.23466 0)
(0.463375 0.535277 0)
(0.435844 -0.237119 0)
(0.419986 -0.849525 0)
(0.363895 -1.17066 0)
(0.302978 -1.21096 0)
(0.306335 -1.05637 0)
(0.307862 -0.864004 0)
(0.29993 -0.717416 0)
(0.287573 -0.619444 0)
(0.272822 -0.552152 0)
(0.257362 -0.504471 0)
(0.241497 -0.472251 0)
(0.225076 -0.453983 0)
(0.207647 -0.44714 0)
(-0.0500605 0.416841 0)
(0.305051 1.12106 0)
(0.663391 1.92629 0)
(1.01445 2.27261 0)
(1.20791 2.20416 0)
(1.17959 2.01786 0)
(1.1608 1.96874 0)
(1.18125 1.78189 0)
(1.16268 1.31044 0)
(1.10874 0.621721 0)
(1.04039 -0.159412 0)
(0.97323 -0.783676 0)
(0.82819 -1.09485 0)
(0.655926 -1.13856 0)
(0.548032 -0.999693 0)
(0.471554 -0.820457 0)
(0.412296 -0.681595 0)
(0.366544 -0.588833 0)
(0.329223 -0.525574 0)
(0.297738 -0.480702 0)
(0.270207 -0.44954 0)
(0.244393 -0.430697 0)
(0.217637 -0.422244 0)
(-0.0155316 0.349408 0)
(0.194771 0.761678 0)
(0.644088 1.4245 0)
(1.10337 1.92564 0)
(1.46485 2.07074 0)
(1.61432 2.01758 0)
(1.63996 1.92977 0)
(1.68125 1.74076 0)
(1.70271 1.32788 0)
(1.68374 0.697755 0)
(1.60795 -0.0336144 0)
(1.45648 -0.621735 0)
(1.22077 -0.913444 0)
(0.959649 -0.961051 0)
(0.757386 -0.852724 0)
(0.613162 -0.713027 0)
(0.510183 -0.604951 0)
(0.435564 -0.531538 0)
(0.378593 -0.480459 0)
(0.333037 -0.443691 0)
(0.295252 -0.417342 0)
(0.262144 -0.399959 0)
(0.229603 -0.390479 0)
(0.033348 0.279566 0)
(0.136969 0.442314 0)
(0.540783 0.896422 0)
(1.06957 1.38761 0)
(1.55464 1.71661 0)
(1.86133 1.87223 0)
(2.0012 1.87067 0)
(2.07335 1.7055 0)
(2.11155 1.33462 0)
(2.09966 0.765409 0)
(2.00516 0.1204 0)
(1.7829 -0.385722 0)
(1.46639 -0.644163 0)
(1.14583 -0.70088 0)
(0.887632 -0.641223 0)
(0.705399 -0.561535 0)
(0.57762 -0.499461 0)
(0.48517 -0.454642 0)
(0.41518 -0.421334 0)
(0.359935 -0.396289 0)
(0.314719 -0.37758 0)
(0.27619 -0.364186 0)
(0.240509 -0.355395 0)
(0.0455792 0.205738 0)
(0.118463 0.24912 0)
(0.359043 0.440927 0)
(0.828811 0.834451 0)
(1.34909 1.24368 0)
(1.7663 1.56111 0)
(2.02665 1.69832 0)
(2.17773 1.61971 0)
(2.25026 1.31407 0)
(2.23552 0.832405 0)
(2.10044 0.310111 0)
(1.83416 -0.098083 0)
(1.4952 -0.324048 0)
(1.17165 -0.404978 0)
(0.916983 -0.409963 0)
(0.736983 -0.39768 0)
(0.607349 -0.383446 0)
(0.510489 -0.36861 0)
(0.435721 -0.3547 0)
(0.376148 -0.342794 0)
(0.327162 -0.333046 0)
(0.285627 -0.325309 0)
(0.248661 -0.319242 0)
(0.0352311 0.156816 0)
(0.0551319 0.142559 0)
(0.159302 0.166997 0)
(0.435655 0.411118 0)
(0.867092 0.797192 0)
(1.29483 1.17649 0)
(1.62464 1.41836 0)
(1.85113 1.44878 0)
(1.96765 1.25428 0)
(1.97043 0.898953 0)
(1.84177 0.502889 0)
(1.60063 0.1848 0)
(1.3209 -0.0207687 0)
(1.0631 -0.138583 0)
(0.865353 -0.208133 0)
(0.717351 -0.250904 0)
(0.60275 -0.273568 0)
(0.512417 -0.283585 0)
(0.440159 -0.287149 0)
(0.381172 -0.287689 0)
(0.331894 -0.286831 0)
(0.289821 -0.285335 0)
(0.252989 -0.283345 0)
(0.0205251 0.1477 0)
(-0.0131211 0.125331 0)
(-0.0193222 0.0623605 0)
(0.0535572 0.165865 0)
(0.296648 0.467826 0)
(0.636312 0.837663 0)
(0.951949 1.12366 0)
(1.20295 1.23765 0)
(1.37018 1.15413 0)
(1.42466 0.925215 0)
(1.36305 0.647861 0)
(1.22353 0.39547 0)
(1.05501 0.195296 0)
(0.90231 0.0456111 0)
(0.774458 -0.062709 0)
(0.665939 -0.134657 0)
(0.573541 -0.179259 0)
(0.495885 -0.20664 0)
(0.430933 -0.223765 0)
(0.376144 -0.23465 0)
(0.329303 -0.241618 0)
(0.288711 -0.246064 0)
(0.253147 -0.248526 0)
(0.00881433 0.159544 0)
(-0.0425611 0.167108 0)
(-0.109175 0.0810959 0)
(-0.162197 0.095737 0)
(-0.1165 0.279558 0)
(0.067397 0.585446 0)
(0.312095 0.868491 0)
(0.551986 1.02111 0)
(0.742629 1.01816 0)
(0.855737 0.889872 0)
(0.890782 0.69711 0)
(0.866441 0.490627 0)
(0.815078 0.300895 0)
(0.748969 0.145202 0)
(0.674408 0.0309279 0)
(0.599497 -0.0486428 0)
(0.529697 -0.103447 0)
(0.466911 -0.141229 0)
(0.41154 -0.16754 0)
(0.363028 -0.186118 0)
(0.320399 -0.199371 0)
(0.282717 -0.208907 0)
(0.249322 -0.215469 0)
(-7.13508e-05 0.178899 0)
(-0.0454541 0.225734 0)
(-0.114107 0.151421 0)
(-0.197038 0.140139 0)
(-0.248154 0.23299 0)
(-0.20269 0.432088 0)
(-0.061849 0.658949 0)
(0.128026 0.81057 0)
(0.317103 0.849515 0)
(0.46559 0.782169 0)
(0.567448 0.646734 0)
(0.62376 0.483134 0)
(0.638141 0.32427 0)
(0.618992 0.191094 0)
(0.579213 0.0882732 0)
(0.530236 0.0116209 0)
(0.479578 -0.0455101 0)
(0.4309 -0.0880688 0)
(0.385539 -0.119728 0)
(0.344085 -0.1434 0)
(0.306548 -0.161223 0)
(0.272618 -0.174736 0)
(0.242062 -0.184725 0)
(-0.00616906 0.198769 0)
(-0.0375776 0.272892 0)
(-0.0843701 0.217556 0)
(-0.14376 0.210957 0)
(-0.197867 0.265652 0)
(-0.205377 0.379363 0)
(-0.139133 0.52312 0)
(-0.0101716 0.637203 0)
(0.144353 0.676749 0)
(0.289117 0.640372 0)
(0.404505 0.548535 0)
(0.47891 0.430907 0)
(0.512262 0.312989 0)
(0.513615 0.208697 0)
(0.494503 0.121991 0)
(0.464216 0.0521997 0)
(0.428802 -0.00290622 0)
(0.391971 -0.0463436 0)
(0.355848 -0.0802889 0)
(0.321427 -0.106859 0)
(0.289197 -0.127699 0)
(0.259344 -0.144098 0)
(0.231983 -0.156794 0)
(-0.00927746 0.216871 0)
(-0.0287822 0.301467 0)
(-0.0536725 0.257161 0)
(-0.084374 0.255195 0)
(-0.110618 0.298483 0)
(-0.11474 0.370105 0)
(-0.0763843 0.453048 0)
(0.00865787 0.520577 0)
(0.11965 0.543996 0)
(0.230443 0.520053 0)
(0.322507 0.459072 0)
(0.385473 0.378342 0)
(0.419036 0.292838 0)
(0.42885 0.211888 0)
(0.421917 0.14004 0)
(0.404215 0.0787341 0)
(0.380138 0.0277008 0)
(0.353027 -0.0141187 0)
(0.324821 -0.0484072 0)
(0.296694 -0.0762723 0)
(0.269544 -0.0988671 0)
(0.243788 -0.117197 0)
(0.219728 -0.131911 0)
(-0.00957179 0.23241 0)
(-0.0210211 0.31617 0)
(-0.0309605 0.275845 0)
(-0.0439245 0.272284 0)
(-0.0499597 0.306671 0)
(-0.0418698 0.356454 0)
(-0.00974032 0.406749 0)
(0.0494403 0.44358 0)
(0.125169 0.453575 0)
(0.202452 0.43503 0)
(0.269 0.392634 0)
(0.317809 0.335152 0)
(0.347628 0.271289 0)
(0.360726 0.207644 0)
(0.360698 0.14831 0)
(0.351196 0.0953147 0)
(0.33539 0.049289 0)
(0.315557 0.0100915 0)
(0.293674 -0.0231626 0)
(0.271159 -0.0510985 0)
(0.248662 -0.0744487 0)
(0.22676 -0.0939385 0)
(0.205904 -0.110069 0)
(-0.00809614 0.244531 0)
(-0.0136654 0.322076 0)
(-0.0145745 0.282604 0)
(-0.0181194 0.27599 0)
(-0.015255 0.301502 0)
(-0.00153663 0.336455 0)
(0.0272809 0.367996 0)
(0.0711401 0.387774 0)
(0.124618 0.390375 0)
(0.179478 0.37471 0)
(0.228308 0.343003 0)
(0.266378 0.299917 0)
(0.291998 0.250711 0)
(0.305709 0.199907 0)
(0.309275 0.150741 0)
(0.304893 0.10518 0)
(0.294701 0.0641775 0)
(0.280515 0.0279673 0)
(0.26383 -0.0034361 0)
(0.245828 -0.0306569 0)
(0.227359 -0.0540585 0)
(0.208987 -0.0741085 0)
(0.191183 -0.091169 0)
(-0.00599794 0.252668 0)
(-0.0068836 0.321988 0)
(-0.00243386 0.28236 0)
(-0.000654059 0.27378 0)
(0.00590698 0.292284 0)
(0.020428 0.316632 0)
(0.045157 0.33589 0)
(0.0791363 0.345752 0)
(0.118855 0.343979 0)
(0.159441 0.329983 0)
(0.196343 0.304875 0)
(0.226339 0.271219 0)
(0.247876 0.232227 0)
(0.260825 0.190965 0)
(0.266001 0.149883 0)
(0.264696 0.110676 0)
(0.258329 0.07435 0)
(0.248242 0.0413838 0)
(0.235579 0.0119193 0)
(0.221368 -0.0141694 0)
(0.206362 -0.0372034 0)
(0.191106 -0.0574185 0)
(0.176104 -0.0750732 0)
(-0.00381999 0.256888 0)
(-0.00127689 0.31773 0)
(0.00634251 0.278087 0)
(0.0113522 0.268327 0)
(0.0193131 0.281885 0)
(0.0331377 0.298556 0)
(0.0540345 0.309712 0)
(0.0809317 0.313391 0)
(0.11134 0.308918 0)
(0.142185 0.296038 0)
(0.170576 0.275252 0)
(0.194319 0.247979 0)
(0.212163 0.216221 0)
(0.223748 0.182068 0)
(0.229394 0.147337 0)
(0.229841 0.113404 0)
(0.22602 0.0811955 0)
(0.218893 0.0512563 0)
(0.209361 0.0238412 0)
(0.198172 -0.000985907 0)
(0.186014 -0.0234075 0)
(0.173485 -0.0435152 0)
(0.160965 -0.0615005 0)
(-0.00176896 0.25762 0)
(0.00316719 0.311014 0)
(0.0122477 0.271456 0)
(0.0190071 0.261132 0)
(0.0274792 0.271279 0)
(0.0402331 0.282463 0)
(0.0579256 0.288172 0)
(0.0795156 0.287943 0)
(0.103226 0.281887 0)
(0.12707 0.269862 0)
(0.149176 0.252038 0)
(0.168037 0.229213 0)
(0.182686 0.202668 0)
(0.192715 0.173843 0)
(0.1982 0.144071 0)
(0.199552 0.114436 0)
(0.197375 0.0857381 0)
(0.192345 0.0585053 0)
(0.185132 0.0330419 0)
(0.176332 0.0094759 0)
(0.16651 -0.0121506 0)
(0.156139 -0.031968 0)
(0.145538 -0.0500689 0)
(5.12201e-05 0.255564 0)
(0.00657327 0.302981 0)
(0.0159913 0.263549 0)
(0.0234865 0.253343 0)
(0.0319508 0.261032 0)
(0.0435597 0.268271 0)
(0.0586186 0.270316 0)
(0.0761521 0.267658 0)
(0.094899 0.260737 0)
(0.113572 0.249429 0)
(0.130937 0.233728 0)
(0.145952 0.214095 0)
(0.157882 0.191377 0)
(0.166354 0.166575 0)
(0.171331 0.14067 0)
(0.173031 0.114505 0)
(0.171835 0.0887471 0)
(0.168207 0.0638795 0)
(0.162627 0.0402183 0)
(0.15556 0.0179449 0)
(0.147384 -0.00285539 0)
(0.138503 -0.0222176 0)
(0.129187 -0.0401759 0)
(0.00162294 0.251244 0)
(0.0091482 0.294321 0)
(0.0181892 0.255301 0)
(0.0257864 0.245517 0)
(0.0339096 0.251368 0)
(0.044389 0.255766 0)
(0.0572492 0.255399 0)
(0.0715972 0.251295 0)
(0.0865586 0.243986 0)
(0.101298 0.23332 0)
(0.114994 0.219213 0)
(0.126917 0.201944 0)
(0.136519 0.18209 0)
(0.143488 0.160362 0)
(0.147738 0.137485 0)
(0.149373 0.114119 0)
(0.148621 0.0908176 0)
(0.145785 0.0680113 0)
(0.141191 0.0460099 0)
(0.135165 0.0250171 0)
(0.127985 0.00513412 0)
(0.119985 -0.0135564 0)
(0.111334 -0.0311371 0)
(0.00293419 0.245259 0)
(0.0111018 0.285695 0)
(0.019406 0.247432 0)
(0.0267065 0.238092 0)
(0.0342599 0.242499 0)
(0.0436512 0.244874 0)
(0.0546301 0.242986 0)
(0.0663957 0.238108 0)
(0.0783699 0.230728 0)
(0.0900109 0.220667 0)
(0.100764 0.207813 0)
(0.110118 0.192351 0)
(0.11767 0.174688 0)
(0.123166 0.15534 0)
(0.126511 0.13486 0)
(0.127735 0.113771 0)
(0.126966 0.0925389 0)
(0.124389 0.071547 0)
(0.120215 0.0510911 0)
(0.114668 0.0313807 0)
(0.107959 0.0125368 0)
(0.100368 -0.00534195 0)
(0.0920425 -0.0224161 0)
(0.00390957 0.237398 0)
(0.0123923 0.276698 0)
(0.0198367 0.239878 0)
(0.0265841 0.231004 0)
(0.0333682 0.234198 0)
(0.0416521 0.235134 0)
(0.0509007 0.23237 0)
(0.0604374 0.227202 0)
(0.0699054 0.219996 0)
(0.0789471 0.210548 0)
(0.0871889 0.198759 0)
(0.0942761 0.184759 0)
(0.099915 0.168845 0)
(0.103913 0.15141 0)
(0.106181 0.132884 0)
(0.106717 0.113697 0)
(0.10559 0.0942445 0)
(0.102914 0.0748702 0)
(0.0988362 0.0558456 0)
(0.0935263 0.0373657 0)
(0.0871721 0.0195466 0)
(0.0799804 0.00246124 0)
(0.0722395 -0.0141298 0)
(0.00465427 0.2307 0)
(0.0135848 0.269713 0)
(0.0204807 0.234249 0)
(0.0266087 0.225605 0)
(0.0326736 0.227863 0)
(0.040065 0.227893 0)
(0.047926 0.224692 0)
(0.0556861 0.219503 0)