/*--------------------------------*- C++ -*----------------------------------*\
| =========                 |                                                 |
| \\      /  F ield         | OpenFOAM: The Open Source CFD Toolbox           |
|  \\    /   O peration     | Version:  5.x                                   |
|   \\  /    A nd           | Web:      www.OpenFOAM.org                      |
|    \\/     M anipulation  |                                                 |
\*---------------------------------------------------------------------------*/
FoamFile
{
    version     2.0;
    format      ascii;
    class       surfaceScalarField;
    location    "0.9";
    object      alphaPhi10;
}
// * * * * * * * * * * * * * * * * * * * * * * * * * * * * * * * * * * * * * //

dimensions      [0 3 -1 0 0 0 0];

internalField   nonuniform List<scalar> 
4432
(
-2.83976e-07
2.83976e-07
-2.56082e-06
2.27685e-06
-6.9936e-06
4.43278e-06
-1.21535e-05
5.15987e-06
-1.45292e-05
2.37573e-06
-1.29779e-05
-1.55131e-06
-9.999e-06
-2.97889e-06
-7.81909e-06
-2.17992e-06
-6.7067e-06
-1.11239e-06
-6.46398e-06
-2.42714e-07
-6.99294e-06
5.28951e-07
-8.08225e-06
1.08932e-06
-9.14879e-06
1.06654e-06
-9.28637e-06
1.37582e-07
-8.64179e-06
-6.44585e-07
-1.02593e-05
2.11792e-06
-1.73121e-05
7.43644e-06
-2.53792e-05
6.88114e-06
-2.49535e-05
-4.15629e-07
-1.96412e-05
-5.13489e-06
-1.31503e-05
-6.44078e-06
-5.92658e-06
-7.24445e-06
-5.93134e-06
-4.7246e-06
5.00857e-06
-1.00223e-05
7.57459e-06
-1.48563e-05
9.2667e-06
-1.75475e-05
7.85112e-06
-1.69538e-05
1.78199e-06
-1.40651e-05
-4.43995e-06
-1.06828e-05
-6.36127e-06
-8.12041e-06
-4.74228e-06
-6.74321e-06
-2.4896e-06
-6.23134e-06
-7.54565e-07
-6.32781e-06
6.2541e-07
-6.91963e-06
1.68114e-06
-8.11718e-06
2.2641e-06
-1.03447e-05
2.36517e-06
-1.36286e-05
3.00328e-06
-1.73461e-05
6.86023e-06
-2.1653e-05
1.09519e-05
-2.11395e-05
5.894e-06
-1.63245e-05
-4.89697e-06
-1.18343e-05
-9.68395e-06
-8.16041e-06
-1.01735e-05
-3.78942e-06
-1.17138e-05
-9.72076e-06
-5.86568e-06
1.08742e-05
-1.13094e-05
1.30183e-05
-1.5479e-05
1.34363e-05
-1.78307e-05
1.02028e-05
-1.77029e-05
1.65412e-06
-1.50994e-05
-7.04338e-06
-1.1638e-05
-9.82276e-06
-8.91665e-06
-7.46358e-06
-7.24663e-06
-4.15963e-06
-6.41e-06
-1.59119e-06
-6.03546e-06
2.50864e-07
-5.88156e-06
1.52724e-06
-6.09501e-06
2.47755e-06
-7.3055e-06
3.57568e-06
-9.95176e-06
5.87654e-06
-1.24798e-05
1.00283e-05
-1.23209e-05
1.09179e-05
-9.19567e-06
2.75463e-06
-6.16094e-06
-8.32144e-06
-4.24463e-06
-1.19168e-05
-3.2965e-06
-1.15579e-05
-1.67216e-06
-1.34066e-05
-1.13929e-05
-4.97337e-06
1.58476e-05
-9.68883e-06
1.77337e-05
-1.35526e-05
1.73001e-05
-1.62535e-05
1.29037e-05
-1.6678e-05
2.07867e-06
-1.46288e-05
-9.09264e-06
-1.19735e-05
-1.24781e-05
-9.7294e-06
-9.70763e-06
-8.07846e-06
-5.81057e-06
-7.20108e-06
-2.46856e-06
-6.86456e-06
-8.56615e-08
-6.68828e-06
1.35095e-06
-6.49601e-06
2.28528e-06
-6.30445e-06
3.38414e-06
-6.06205e-06
5.63416e-06
-5.03864e-06
9.00534e-06
-2.73255e-06
8.65396e-06
-6.79159e-07
7.40479e-07
-4.489e-07
-8.5517e-06
-1.10519e-06
-1.12606e-05
-1.87476e-06
-1.07884e-05
-1.25287e-06
-1.40285e-05
-1.26459e-05
-3.23452e-06
1.90821e-05
-6.93766e-06
2.14369e-05
-1.01695e-05
2.0532e-05
-1.2616e-05
1.53502e-05
-1.33585e-05
2.82117e-06
-1.23345e-05
-1.01167e-05
-1.12872e-05
-1.35254e-05
-1.01761e-05
-1.08187e-05
-8.87164e-06
-7.11507e-06
-8.00558e-06
-3.33462e-06
-7.65324e-06
-4.38005e-07
-7.49672e-06
1.19443e-06
-7.30702e-06
2.09559e-06
-6.82664e-06
2.90375e-06
-5.3904e-06
4.19791e-06
-2.46319e-06
6.07813e-06
5.93405e-07
5.59737e-06
1.45986e-06
-1.25971e-07
-4.6086e-07
-6.63098e-06
-2.00864e-06
-9.71278e-06
-2.66888e-06
-1.01281e-05
-1.74797e-06
-1.49494e-05
-1.43939e-05
-1.07387e-06
2.0156e-05
-3.42788e-06
2.37909e-05
-5.61585e-06
2.272e-05
-7.47769e-06
1.7212e-05
-8.51096e-06
3.85444e-06
-8.97014e-06
-9.65747e-06
-1.00516e-05
-1.24439e-05
-1.02436e-05
-1.06266e-05
-9.29909e-06
-8.05962e-06
-8.41319e-06
-4.22053e-06
-7.92185e-06
-9.29347e-07
-7.57077e-06
8.43343e-07
-7.3175e-06
1.84232e-06
-6.97473e-06
2.56098e-06
-5.83137e-06
3.05456e-06
-3.43524e-06
3.68201e-06
-1.03243e-06
3.19456e-06
-5.69045e-07
-5.89353e-07
-1.81013e-06
-5.38989e-06
-2.71798e-06
-8.80493e-06
-2.708e-06
-1.01381e-05
-1.71876e-06
-1.59387e-05
-1.61126e-05
1.53717e-06
1.86188e-05
5.00524e-07
2.48275e-05
-9.50733e-07
2.41712e-05
-1.99089e-06
1.82522e-05
-2.75627e-06
4.6199e-06
-5.40717e-06
-6.99615e-06
-8.93846e-06
-8.878e-06
-9.52718e-06
-1.00379e-05
-8.00497e-06
-9.58183e-06
-6.73548e-06
-5.49004e-06
-6.07905e-06
-1.58577e-06
-5.53335e-06
2.97635e-07
-5.34864e-06
1.65762e-06
-5.35228e-06
2.56461e-06
-4.73571e-06
2.438e-06
-3.15502e-06
2.10132e-06
-1.36254e-06
1.40207e-06
-6.16484e-07
-1.33541e-06
-8.46144e-07
-5.16023e-06
-1.32557e-06
-8.32551e-06
-1.42456e-06
-1.00391e-05
-8.92949e-07
-1.64703e-05
-1.70056e-05
4.66356e-06
1.39552e-05
4.95134e-06
2.45397e-05
5.29726e-06
2.38253e-05
5.90884e-06
1.76406e-05
4.21169e-06
6.31705e-06
-2.44899e-06
-3.32677e-07
-8.07303e-06
-3.31024e-06
-7.65541e-06
-1.04571e-05
-5.04874e-06
-1.21884e-05
-4.23823e-06
-6.30149e-06
-4.36911e-06
-1.45539e-06
-3.86978e-06
-2.01704e-07
-3.42258e-06
1.21042e-06
-3.33445e-06
2.47648e-06
-2.80401e-06
1.90756e-06
-1.53668e-06
8.33979e-07
-1.14206e-07
-2.03983e-08
8.42092e-07
-2.2917e-06
1.08901e-06
-5.40714e-06
5.01801e-07
-7.7383e-06
-1.1052e-08
-9.52617e-06
-5.31806e-07
-1.59487e-05
-1.75374e-05
-8.04824e-06
8.03492e-06
-2.1395e-05
1.33468e-05
-9.79086e-06
-1.05644e-05
1.49837e-05
-2.12053e-05
2.98207e-05
-1.29518e-05
3.10782e-05
-1.22647e-06
2.44913e-05
6.58699e-06
-5.54574e-07
2.40797e-05
-3.80671e-06
3.37948e-06
3.75798e-06
-6.04993e-06
7.17646e-06
-1.37849e-06
6.28326e-06
1.79491e-06
4.91961e-06
1.2428e-06
-1.79966e-07
4.26008e-06
-1.57085e-05
1.4637e-05
-2.54199e-05
9.71143e-06
-2.76292e-05
8.18008e-06
-1.96218e-05
-3.0826e-06
-2.90325e-05
-1.59099e-05
2.39106e-05
-1.71913e-05
1.63343e-05
1.67375e-06
-2.42422e-05
1.98718e-05
-4.15736e-05
3.115e-05
-1.81086e-05
3.06216e-05
-3.15803e-07
1.89294e-05
1.82819e-05
3.16831e-06
3.41908e-05
1.94914e-06
-3.61618e-06
5.9288e-06
-1.02695e-05
7.8133e-06
-1.56202e-06
7.83438e-06
4.49495e-07
7.83161e-06
3.51394e-06
3.06337e-06
9.02289e-06
-1.31481e-05
3.00705e-05
-2.51812e-05
2.44389e-05
-2.27035e-05
9.47671e-06
-1.6483e-05
-1.5456e-05
-4.55155e-05
-1.55198e-05
3.94304e-05
-1.13777e-05
1.5215e-05
5.33192e-06
-4.12894e-05
2.36116e-05
-6.33488e-05
2.54686e-05
-2.07575e-05
1.37597e-05
1.13504e-05
-4.11991e-06
3.61775e-05
5.77963e-06
8.47192e-06
2.2794e-06
-1.30142e-05
3.99876e-06
-9.21325e-06
6.84391e-06
-7.49872e-07
9.85769e-06
1.11643e-06
1.4857e-05
6.85844e-06
7.00337e-06
1.49256e-05
-8.00057e-06
4.25754e-05
-1.85407e-05
3.91008e-05
-2.24581e-05
9.66816e-06
-9.78405e-06
-3.86126e-05
-5.52996e-05
-1.20335e-05
5.14638e-05
-6.61645e-06
1.2072e-05
6.18175e-06
-5.43931e-05
1.41717e-05
-7.13167e-05
5.972e-06
-1.26104e-05
-9.87315e-06
2.72224e-05
-4.5625e-06
2.69334e-05
1.83021e-06
-2.64814e-06
6.53813e-06
-7.67519e-06
6.91662e-06
-5.21975e-06
6.29808e-06
9.76914e-07
6.64744e-06
1.59411e-06
8.07915e-06
2.17866e-06
2.05071e-06
1.2765e-05
-6.91881e-06
4.62906e-05
-1.296e-05
5.27286e-05
-1.43746e-05
7.35674e-06
-2.5834e-06
-5.2121e-05
-5.7883e-05
-7.51322e-06
5.26672e-05
-1.14192e-06
6.78311e-06
4.53399e-06
-6.30954e-05
-4.48562e-06
-6.19539e-05
-2.06927e-05
3.32143e-06
-2.45877e-05
3.09257e-05
-2.04992e-06
2.99261e-06
1.61445e-06
-6.58431e-06
1.9666e-06
-2.0889e-06
2.87622e-06
-1.04647e-06
6.42606e-07
1.4061e-06
-1.98912e-07
1.09796e-06
-1.71993e-06
1.0691e-06
-9.39699e-06
3.85498e-06
-1.01312e-05
3.90042e-05
-1.00871e-05
5.27538e-05
-4.31425e-06
2.68476e-06
3.56287e-06
-6.07216e-05
-4.07765e-05
-2.41783e-06
5.73465e-05
1.8995e-06
1.46496e-06
-2.02963e-06
-7.46001e-05
-2.26678e-05
-4.18849e-05
-3.64827e-05
1.6916e-05
-8.94811e-06
1.10229e-05
-2.00541e-06
1.54712e-07
5.01267e-08
-6.75748e-06
1.73814e-06
-6.28525e-06
6.90958e-07
-4.9974e-07
-4.47953e-07
2.06085e-06
-1.52063e-06
1.59746e-06
-2.53676e-06
1.42611e-06
-1.36279e-05
3.62962e-06
-1.80859e-05
2.36594e-05
-7.62466e-06
4.23586e-05
-2.86182e-06
-1.99586e-06
2.39493e-06
-6.69589e-05
-1.88084e-05
-5.06893e-07
6.35256e-05
2.94548e-06
-1.99148e-06
-9.62624e-06
-6.19832e-05
-3.48998e-05
-1.74438e-05
-2.66182e-05
1.7835e-05
-2.24251e-06
8.63085e-07
-3.50786e-06
2.42648e-07
-4.97111e-06
-6.40121e-06
-1.27716e-06
-2.6358e-05
-1.71736e-07
-1.03588e-06
-1.40541e-06
2.81036e-06
-3.36921e-06
3.0771e-06
-6.14331e-06
2.94e-06
-3.2838e-05
-3.99111e-06
-3.07533e-05
6.06293e-06
-1.09521e-05
2.2616e-05
-6.09424e-06
-6.79843e-06
-9.10879e-07
-7.20601e-05
-1.62757e-05
2.90634e-06
6.06192e-05
3.45739e-06
-2.67673e-06
-1.59532e-05
-4.25132e-05
-3.66719e-05
4.48533e-06
-8.13354e-06
9.2307e-06
-3.07907e-06
1.34433e-06
-4.79764e-06
8.95721e-07
-1.233e-05
-9.24989e-06
-8.72713e-06
-2.795e-05
-1.57304e-06
-1.04096e-06
-4.03736e-06
4.79051e-06
-1.24431e-05
1.08072e-05
-4.95958e-05
2.64572e-06
-6.65927e-05
-1.37428e-05
-4.92464e-05
-1.12101e-05
-2.91567e-05
2.58393e-06
-1.68287e-05
-1.77124e-05
-7.55023e-06
-6.38013e-05
-4.12738e-05
2.53317e-05
-1.13491e-05
3.00737e-05
1.97978e-05
3.14236e-05
2.24753e-05
1.90665e-05
2.99976e-05
-5.4588e-06
3.08424e-05
-2.46831e-05
1.88878e-05
-2.88181e-05
8.32361e-07
-2.27187e-05
-1.65547e-05
-1.57794e-05
-1.48645e-05
-1.49317e-05
-3.60567e-06
-1.65255e-05
7.17607e-07
-1.52761e-05
-6.71205e-07
-1.41439e-05
-4.76294e-07
-1.41747e-05
6.61556e-07
-1.28597e-05
1.48891e-07
-9.10606e-06
-2.91527e-06
-4.73871e-06
-4.24326e-06
-1.68478e-06
-4.89968e-06
-1.54983e-06
-4.89847e-06
-5.14029e-06
-3.60761e-06
-1.13142e-05
-2.78269e-06
-1.49379e-05
-8.23334e-06
-1.65949e-05
-1.20663e-05
2.55876e-05
-2.97113e-05
3.28258e-05
1.55628e-05
2.88388e-05
2.48286e-05
7.14255e-06
4.26584e-05
-2.86874e-05
5.64683e-05
-5.77e-05
4.78965e-05
-6.85114e-05
1.16455e-05
-4.03196e-05
-1.09776e-05
-7.5113e-06
-1.66926e-05
1.07484e-07
-3.89576e-06
-9.51316e-07
8.73128e-08
-2.11711e-06
7.63803e-08
-3.3286e-06
-1.59397e-07
-8.57394e-06
-6.10813e-08
-1.47584e-05
7.66714e-08
-1.97496e-05
5.34926e-07
-2.22753e-05
1.06951e-06
-2.18219e-05
-1.80429e-08
-2.34289e-05
4.85115e-08
-3.0339e-05
1.25324e-06
-3.51258e-05
9.13592e-07
-2.90879e-05
-1.8732e-05
-4.859e-05
-2.97621e-05
-9.7912e-06
-1.81271e-05
-4.24944e-05
3.82365e-05
-7.48314e-05
5.55703e-05
-9.25454e-05
4.33491e-05
-9.77286e-05
3.31933e-05
-6.30436e-05
6.58965e-06
-3.33687e-05
3.16421e-07
-1.59287e-05
-1.66022e-05
-3.48449e-06
-7.04193e-06
-1.58116e-08
-8.95667e-07
-9.94893e-09
2.23424e-08
-1.42278e-07
1.20925e-07
-7.72881e-07
1.34073e-07
-2.85831e-06
1.9078e-07
-4.05564e-06
-1.34167e-07
-4.91262e-06
-1.81423e-07
-4.63763e-06
-9.13214e-07
-4.37178e-06
-2.43362e-06
-5.20107e-06
-1.62737e-06
-6.01586e-06
-5.55702e-07
-1.10505e-05
-1.69437e-06
-9.33257e-05
-2.58832e-05
-9.55547e-05
-8.04869e-05
-8.87254e-05
6.14595e-05
-0.000135734
6.75649e-05
-0.000101732
1.65344e-05
-7.71856e-05
3.63143e-06
-7.36924e-05
4.83063e-06
-8.53062e-05
2.4402e-06
-6.68621e-05
-7.47713e-06
-2.98517e-05
-1.74372e-05
-2.88436e-06
-8.34912e-06
-2.82634e-07
-2.57434e-07
-3.4576e-07
3.64978e-08
-4.16829e-07
1.36041e-07
-6.56702e-07
2.86226e-07
-1.13475e-06
4.57869e-07
-4.41172e-06
7.81357e-07
-9.04331e-06
-1.46228e-06
-8.87666e-06
-7.43998e-06
-4.78906e-06
-1.6423e-05
-2.89092e-06
-6.14924e-06
-3.60956e-06
-2.29578e-06
-5.8138e-06
-1.71647e-06
-3.85174e-05
-9.51602e-06
-6.66821e-05
-0.000100103
-0.000110313
0.000168257
-5.33653e-05
2.34451e-05
-3.6885e-05
1.81314e-07
-4.79303e-05
2.4884e-06
-8.6472e-05
8.88029e-06
-8.63907e-05
8.92983e-06
-8.55193e-05
-3.45221e-06
-7.76179e-05
-1.87676e-05
-1.40779e-05
-9.96976e-06
-4.65837e-07
-4.80498e-07
-5.48726e-07
6.69667e-08
-6.52257e-07
1.90923e-07
-7.71723e-07
3.40706e-07
-1.05304e-06
5.5406e-07
-1.35878e-06
4.22012e-07
-2.49483e-05
-6.70482e-06
-6.86674e-05
-4.74221e-05
-6.83768e-05
-7.75039e-05
-1.26608e-05
-6.08955e-05
-4.66798e-06
-1.2515e-05
-2.32289e-06
-8.45854e-06
-5.5076e-06
-3.23507e-05
-6.83731e-05
-0.000108795
-3.78242e-05
0.00019167
-1.20225e-05
1.20292e-05
-1.30533e-05
5.94382e-07
-2.79318e-05
3.98405e-06
-3.05848e-05
8.38761e-07
-2.9255e-05
1.87964e-07
-5.07801e-05
-4.44831e-07
-7.61488e-05
-3.51674e-06
-3.08492e-05
-6.2849e-06
-4.25588e-07
-1.29834e-06
-4.49528e-07
4.61945e-08
-5.22858e-07
2.46545e-07
-4.97943e-07
3.03742e-07
-3.9488e-07
3.81784e-07
-6.86126e-08
-2.48678e-07
-3.91396e-05
-8.25957e-06
-9.23896e-05
-6.95979e-05
-9.11809e-05
-7.17569e-05
-6.65859e-05
-7.4982e-05
-5.08569e-05
-4.27415e-05
-4.44402e-05
-5.42032e-05
-7.01784e-05
-8.44758e-05
-0.000104463
-0.000116717
-1.21243e-05
0.000113194
-2.90935e-06
2.6815e-06
-2.82895e-06
3.42564e-07
-1.37076e-06
1.49556e-07
-5.52227e-07
6.66602e-08
-3.97497e-07
3.37165e-09
-1.00088e-06
-1.63836e-09
-4.74563e-06
-1.38673e-07
-2.98036e-05
-1.10777e-06
-3.45214e-05
-2.11304e-06
-2.80149e-05
2.05695e-08
-4.88021e-07
1.44299e-06
-4.22454e-07
1.94859e-07
-4.87504e-07
3.95276e-07
3.82581e-08
-6.79833e-07
-3.26578e-05
-1.76318e-05
-6.90951e-05
-6.76741e-05
-8.17294e-05
-4.86141e-05
-8.57562e-05
-3.13561e-05
-8.19104e-05
-9.70128e-06
-8.78521e-05
-1.07612e-05
-0.000131065
-3.53109e-05
-0.000105369
-0.000141161
-1.68914e-06
2.63727e-05
-3.8527e-07
1.14743e-06
-2.0798e-07
1.13055e-07
-9.63466e-08
2.24578e-08
-3.51835e-08
5.20052e-09
-3.51746e-08
3.53974e-11
-5.22963e-08
6.74454e-10
-2.44882e-07
5.00625e-09
-9.12429e-06
-1.17002e-08
-3.55131e-05
-7.67175e-07
-3.28955e-05
-1.40835e-07
-3.00238e-05
6.10645e-07
-1.7278e-05
-2.91939e-07
-4.88767e-06
-2.26588e-06
-1.67986e-05
-2.57378e-06
-4.35404e-05
-9.15525e-06
-4.96867e-05
-1.65336e-08
-1.28609e-05
-3.40367e-08
-1.10656e-06
-6.75453e-08
-2.71525e-06
-1.37974e-07
-1.29297e-05
-6.0371e-07
-2.14231e-05
-2.22356e-06
-2.28845e-05
-0.000127716
-2.93675e-07
2.66661e-05
-5.9796e-08
8.7359e-07
-2.47268e-08
3.99751e-08
-6.84989e-09
3.62316e-09
-2.25184e-09
5.90598e-10
-2.63871e-09
5.66851e-11
-6.30789e-09
-1.43784e-10
-3.4823e-08
-4.5891e-10
-8.64149e-08
-4.31119e-10
-8.58358e-07
-2.93378e-09
-4.39839e-06
6.01337e-09
-4.11043e-05
-7.60446e-10
-3.64102e-05
-3.37695e-09
-3.38069e-05
-2.71256e-08
-1.60227e-05
-2.27842e-08
-1.90276e-08
-1.8524e-08
-2.75526e-08
-7.2312e-09
-4.22235e-08
-1.37081e-08
-8.45694e-08
-1.84932e-08
-1.9092e-07
-2.61252e-08
-7.39653e-07
-6.30726e-08
-2.81991e-06
-1.82611e-07
-1.29848e-06
-2.45601e-05
-4.42097e-07
0.000156309
-2.2264e-08
4.37772e-07
-3.42953e-09
1.77065e-08
-6.78531e-10
8.89325e-10
-1.67231e-10
8.77429e-11
-1.69456e-10
1.44829e-11
-4.12057e-10
-7.58048e-13
-1.02274e-09
5.95181e-12
-1.63889e-09
2.1811e-11
-6.04169e-09
-1.68746e-11
-3.14545e-10
-6.69127e-12
-1.77522e-09
2.42728e-12
-8.59186e-09
4.03498e-12
-1.15791e-08
-2.0915e-11
-1.90686e-08
-4.28591e-09
-2.40812e-08
-1.61421e-08
-2.71807e-08
-9.67069e-09
-3.19167e-08
-8.6575e-09
-3.3294e-08
-1.91169e-08
-3.91949e-08
-2.46598e-08
-7.25169e-08
-3.71749e-08
-2.2169e-07
-4.71818e-08
-7.99851e-08
-1.44733e-06
-2.93335e-07
0.000238634
-8.24654e-09
1.48518e-07
-7.76945e-10
9.84318e-09
-7.31042e-11
1.89737e-10
-1.45097e-11
2.05274e-11
-1.29314e-11
3.48625e-12
-2.57702e-11
1.95897e-12
-3.46028e-11
2.21544e-12
-2.65044e-11
2.51329e-12
-5.32011e-11
3.16862e-13
-8.04365e-11
1.09646e-13
-3.32871e-10
1.81197e-11
-8.23772e-10
1.00594e-10
-2.65512e-09
5.96623e-10
-6.03137e-08
-1.60477e-09
-1.53466e-07
-3.33698e-08
-1.80656e-07
-8.03069e-08
-1.34557e-07
-1.34644e-07
-6.51099e-08
-1.83092e-07
-5.95562e-08
-5.14914e-08
-5.79091e-08
-5.55045e-08
-6.54696e-08
-5.26921e-08
-4.10361e-08
-1.11747e-07
-6.6418e-07
0.000146945
-6.38973e-09
1.48444e-07
-1.66405e-10
3.53776e-09
-1.40206e-11
3.55517e-11
-2.50343e-12
6.80058e-12
-1.85563e-12
1.28322e-12
-2.4716e-12
8.02819e-13
-2.35548e-12
6.59768e-13
-1.36303e-12
4.31867e-13
-1.70197e-12
1.45099e-13
-3.13903e-12
3.43982e-13
2.17076e-12
4.76515e-12
-3.09124e-11
7.22059e-11
-5.07255e-10
6.2346e-10
-5.86606e-08
1.71294e-09
-2.0905e-07
-1.28529e-08
-2.5746e-07
-4.27008e-08
-2.80347e-07
-1.03453e-07
-2.47675e-07
-1.75511e-07
-3.34824e-07
-1.57547e-07
-2.1756e-07
-2.69837e-07
-6.04281e-08
-2.48171e-07
-7.35993e-08
-3.04953e-08
-2.12399e-07
4.6702e-07
-9.79146e-10
3.52852e-07
-4.61539e-12
2.54774e-09
-3.83921e-12
3.37029e-11
-7.84685e-13
2.854e-12
-5.46835e-13
8.23969e-13
-5.24655e-13
5.57875e-13
-3.84861e-13
3.53515e-13
-2.1959e-13
2.24904e-13
-1.88045e-13
1.30238e-13
-1.84691e-13
1.73621e-13
4.73186e-12
2.73104e-13
-1.05203e-11
5.48929e-12
-1.98673e-10
1.96502e-11
-2.58697e-10
-6.19169e-12
-7.61444e-09
-1.33792e-10
-2.92173e-08
-1.67328e-11
-5.57711e-08
-7.33851e-13
-1.44371e-07
-3.46573e-09
-1.98076e-07
-8.94828e-08
-2.5678e-07
-1.9461e-07
-2.10818e-07
-2.72332e-07
-2.91864e-07
-9.36199e-08
1.43643e-07
3.25086e-07
7.32953e-09
3.70426e-07
-1.48634e-11
5.74931e-09
-1.3301e-12
2.00069e-11
-3.45649e-13
1.73881e-12
-3.07733e-13
6.22592e-13
-2.78721e-13
3.77972e-13
-2.16477e-13
2.55464e-13
-1.54164e-13
1.33944e-13
-1.08664e-13
2.12555e-15
-7.1809e-14
2.60222e-15
3.01712e-14
3.69067e-14
1.62282e-12
-1.62364e-13
9.14954e-12
-4.885e-13
6.11844e-12
-1.17631e-12
1.72864e-11
-4.73869e-13
6.23361e-13
-2.21132e-13
5.83976e-14
-2.18853e-13
-1.36795e-09
-2.09785e-09
-7.65957e-09
-7.41486e-10
-9.78804e-08
-1.6699e-11
-1.44152e-07
-2.08755e-07
-2.26498e-07
-1.86112e-07
1.21059e-07
2.04028e-07
3.48254e-10
1.60931e-07
-1.53796e-11
3.85667e-09
-4.31482e-13
5.24942e-12
-3.72466e-13
1.70277e-12
-7.89016e-13
9.00871e-13
-3.89766e-12
3.34112e-12
-2.42009e-11
2.04202e-11
-1.33624e-11
-1.07377e-11
-1.04323e-12
-1.23541e-11
-4.80543e-14
-1.19894e-12
1.33449e-14
-2.47098e-13
4.60282e-13
-8.54408e-14
7.69659e-13
-1.69884e-13
9.28473e-13
-1.9064e-13
4.62612e-13
-3.49478e-13
4.36963e-13
-2.45414e-13
2.54612e-13
-1.58147e-13
7.58551e-10
-8.72915e-14
1.69858e-11
-1.63074e-13
3.52168e-13
-9.55015e-14
-3.50463e-08
-7.5805e-14
-1.5834e-07
-8.44968e-08
1.23869e-07
8.0201e-08
2.10748e-09
2.56899e-07
-4.83823e-13
7.15882e-09
-1.81653e-12
8.78493e-12
-2.49865e-11
2.50645e-11
-2.24338e-10
3.64523e-10
-2.0518e-09
1.83294e-09
-7.38826e-10
3.67337e-09
-2.36692e-10
-4.72643e-10
-2.36854e-11
-2.28733e-10
-7.39798e-13
-2.48747e-11
8.48596e-14
-1.29255e-12
3.59246e-13
-4.05963e-13
1.18847e-12
-2.71476e-13
1.95687e-12
-3.96546e-13
1.66109e-12
-5.38085e-13
4.43591e-13
-4.36004e-13
3.65252e-13
-2.29502e-13
1.15791e-13
-1.13629e-13
4.53424e-14
-1.22818e-13
2.61886e-14
-8.95394e-14
1.49248e-14
-9.46886e-14
-7.43437e-13
1.39308e-08
6.02482e-08
1.9953e-08
3.09577e-08
1.61396e-07
1.27169e-09
3.61552e-08
2.29142e-12
1.28249e-09
-5.76842e-10
6.3466e-10
-2.64243e-09
9.21095e-09
-1.76566e-08
6.31964e-08
-2.16408e-08
6.73013e-09
-3.74877e-09
-2.80574e-08
-1.61557e-10
-4.35339e-09
-3.6249e-12
-3.29686e-10
-7.96205e-14
-6.75903e-12
5.62926e-13
-1.15004e-12
6.70636e-13
-3.95146e-13
1.87914e-12
-2.59694e-13
1.66944e-12
-4.42396e-13
9.15683e-13
-3.76868e-13
2.58437e-13
-1.95913e-13
1.01162e-13
-4.52858e-14
1.3015e-13
-9.93636e-14
8.03829e-14
-1.30284e-13
5.04405e-14
-5.67176e-14
-7.8748e-13
8.42291e-14
1.83235e-08
1.62897e-09
4.88116e-08
2.63349e-08
6.6619e-09
8.15852e-08
2.33554e-09
1.17711e-08
6.91375e-10
2.24593e-09
1.42084e-08
5.20586e-09
2.42817e-08
6.0947e-08
1.93454e-08
1.19471e-08
1.81316e-08
-2.48685e-08
-5.94504e-10
-2.05473e-08
-1.379e-10
-1.73837e-09
-7.06584e-12
-1.47281e-10
2.65935e-13
-9.27819e-12
6.73913e-13
-9.88234e-13
3.56809e-13
-1.2176e-13
4.49746e-13
-5.76614e-14
4.40608e-13
-5.66049e-14
2.12301e-13
-4.36705e-14
8.61946e-14
-2.28719e-14
1.99498e-13
-2.38545e-14
2.45667e-13
-1.10119e-14
2.33537e-13
-1.73912e-15
-1.88545e-12
1.34717e-12
1.5268e-09
9.95955e-11
2.06872e-08
3.39066e-09
3.06512e-08
3.23315e-08
8.00318e-09
2.20662e-08
3.91945e-09
6.64081e-09
7.82863e-09
5.32773e-09
7.11033e-08
5.79024e-08
6.29962e-08
2.2283e-08
5.28664e-08
-1.39273e-08
3.91073e-09
-2.26311e-08
-6.27842e-11
-1.93072e-09
-6.43393e-12
-2.52871e-10
-2.25067e-13
-2.11393e-11
1.09664e-13
-1.87219e-12
8.9246e-14
-1.64983e-13
4.81016e-14
-2.39228e-14
4.78824e-14
-1.14349e-14
4.95182e-14
-1.04818e-14
3.01211e-14
-9.21883e-15
2.38351e-14
-6.88794e-15
2.64821e-14
-1.87382e-15
2.55298e-14
-1.20856e-15
-4.64016e-11
7.6913e-11
9.97701e-11
-1.92838e-15
3.00653e-09
2.99518e-10
1.2774e-08
3.41159e-09
2.1765e-08
1.49413e-08
1.44025e-08
3.19998e-08
8.50445e-08
7.03609e-08
1.06016e-07
7.46476e-08
9.346e-08
3.88508e-08
7.64044e-08
5.22202e-09
4.26211e-09
-9.59505e-09
2.16727e-10
-1.07296e-09
1.98388e-11
-1.67221e-10
1.96596e-12
-1.59487e-11
2.21137e-13
-1.47104e-12
4.47165e-14
-1.31772e-13
2.02793e-14
-1.64492e-14
1.70243e-14
-5.17648e-15
1.55664e-14
-4.11209e-15
1.32041e-14
-3.97296e-15
7.0936e-15
-3.41486e-15
4.68309e-15
-1.86567e-15
4.28567e-15
-1.19419e-15
-1.702e-15
1.77958e-10
4.23987e-15
-6.1873e-15
2.9535e-10
4.1733e-12
2.97252e-09
5.48286e-10
3.20126e-08
9.35909e-09
1.08215e-07
9.57497e-08
1.15481e-07
9.75626e-08
1.14862e-07
8.24003e-08
1.04363e-07
5.21931e-08
6.84846e-08
1.78231e-08
1.79146e-09
2.09353e-10
2.4892e-10
-2.2077e-10
2.55495e-11
-4.00597e-11
2.52529e-12
-4.63122e-12
2.56392e-13
-4.85351e-13
4.00739e-14
-4.68438e-14
1.1883e-14
-6.13074e-15
8.07098e-15
-1.87325e-15
6.9777e-15
-1.49611e-15
6.1052e-15
-1.52707e-15
4.53993e-15
-1.49167e-15
2.52789e-15
-1.1976e-15
1.8454e-15
-9.09784e-16
-1.09467e-15
1.34957e-15
-2.13477e-15
-3.95169e-15
4.17348e-12
9.49149e-15
5.37096e-10
8.05338e-12
2.03386e-08
1.29316e-09
6.82184e-08
5.79637e-08
8.74074e-08
8.32979e-08
9.19971e-08
7.99029e-08
9.06378e-08
5.88036e-08
1.0857e-08
5.13028e-09
6.05772e-10
2.87379e-10
8.81378e-11
1.90787e-11
9.99339e-12
-7.57973e-13
1.05909e-12
-4.11509e-13
1.15591e-13
-6.20091e-14
1.41793e-14
-7.03499e-15
5.01856e-15
-1.15901e-15
3.11847e-15
-4.28374e-16
2.72642e-15
-3.77568e-16
2.4837e-15
-4.39799e-16
2.07948e-15
-4.98348e-16
1.43798e-15
-5.16536e-16
1.23554e-15
-5.89249e-16
-9.10327e-16
1.16895e-15
-3.74385e-15
-3.18644e-16
1.40943e-14
6.25783e-14
1.50442e-11
4.02492e-12
2.38593e-09
1.63737e-10
3.03086e-08
2.46453e-09
5.02719e-08
3.67308e-08
4.66562e-08
4.57477e-08
1.22992e-08
6.40435e-09
2.14482e-10
-3.62088e-10
5.88028e-11
2.57587e-11
1.10477e-11
4.52299e-12
1.60859e-12
4.42786e-13
1.94313e-13
2.55611e-14
2.37432e-14
-1.01832e-15
4.81942e-15
-5.49864e-16
1.39288e-15
-1.42456e-16
8.40967e-16
-6.79045e-17
7.71097e-16
-6.80453e-17
7.7824e-16
-8.76663e-17
7.84469e-16
-1.32214e-16
8.18868e-16
-2.28443e-16
1.0538e-15
-6.00586e-16
-1.09784e-15
1.36506e-15
-2.59004e-15
2.33709e-15
-3.4335e-14
1.23108e-13
1.40054e-11
2.57709e-12
2.00353e-12
7.32201e-11
1.02762e-09
4.40456e-11
6.31889e-09
1.00944e-09
7.64412e-09
5.3272e-10
7.89343e-10
-3.89519e-10
6.42272e-11
-6.26873e-11
8.50779e-12
-2.82147e-12
1.17755e-12
2.69499e-13
1.74944e-13
7.44458e-14
2.67872e-14
7.55872e-15
5.69977e-15
6.30801e-16
1.04271e-15
5.63843e-18
2.68725e-16
-1.09821e-17
1.72399e-16
-8.19367e-18
1.58813e-16
-1.01325e-17
1.76846e-16
-1.61757e-17
2.84954e-16
-4.73148e-17
6.46841e-16
-2.02789e-16
1.37056e-15
-6.32165e-16
-9.6174e-16
1.4891e-15
1.3072e-15
1.38259e-15
1.20202e-13
1.88717e-14
2.85372e-12
2.1853e-13
-2.37205e-12
8.52891e-13
1.41045e-11
9.9843e-12
5.6271e-10
9.94752e-11
6.53044e-10
5.75509e-11
1.2108e-10
-2.67736e-11
1.51864e-11
-7.04877e-12
1.6265e-12
-7.63178e-13
1.98993e-13
-1.94833e-14
2.59419e-14
5.41496e-15
7.33553e-15
2.17855e-15
1.18309e-15
2.17203e-16
1.51519e-16
1.10189e-17
4.38358e-17
-3.46177e-20
3.0798e-17
-7.28589e-19
2.87013e-17
-1.26254e-18
4.24203e-17
-3.17896e-18
1.50645e-16
-2.15709e-17
6.8588e-16
-1.38276e-16
1.34516e-15
-4.19359e-16
-5.33794e-16
1.33428e-15
-5.77046e-16
4.62765e-16
3.22342e-15
1.04755e-14
2.25593e-13
1.53994e-14
-2.77994e-13
-1.13661e-14
4.27852e-12
1.67121e-12
5.06526e-11
9.3644e-12
5.76363e-11
5.09374e-12
1.3639e-11
-2.18623e-12
2.05275e-12
-6.4816e-13
2.50035e-13
-7.84812e-14
2.71283e-14
-8.20489e-16
8.38634e-15
3.12292e-15
1.41867e-15
4.53817e-16
1.36005e-16
3.14883e-17
1.92259e-17
2.12725e-18
6.41194e-18
1.73993e-19
4.86676e-18
-2.81722e-20
4.58004e-18
-1.07239e-19
1.15024e-17
-4.77057e-19
8.069e-17
-5.88217e-18
3.71016e-16
-3.92715e-17
5.93624e-16
-7.92231e-17
-8.31464e-17
5.51678e-16
-1.50277e-16
4.12134e-17
-7.29055e-16
2.31427e-15
2.15208e-15
4.85285e-15
-1.06579e-14
1.50558e-14
9.92517e-13
1.79433e-13
5.162e-12
7.91364e-13
5.31211e-12
4.20598e-13
1.36577e-12
-1.53769e-13
2.3486e-13
-3.8467e-14
3.24606e-14
-9.02653e-16
7.61405e-15
3.08562e-15
1.32487e-15
5.599e-16
1.28525e-16
4.50788e-17
1.31577e-17
3.32641e-18
2.18547e-18
2.73162e-19
8.00229e-19
3.71859e-20
5.79974e-19
3.81959e-21
5.45502e-19
-4.50236e-21
2.19734e-18
-2.46608e-20
2.13876e-17
-3.51491e-19
8.19028e-17
-1.93391e-18
9.11303e-17
-3.03e-18
-3.03316e-18
6.99991e-17
-6.20774e-18
3.26855e-18
-3.4376e-17
2.55374e-16
6.8526e-17
1.0285e-15
6.41309e-15
3.19456e-15
1.16929e-13
1.9538e-14
4.55539e-13
6.65853e-14
4.41947e-13
3.91968e-14
1.20891e-13
-5.38892e-15
2.24195e-14
2.68324e-15
5.05488e-15
2.19186e-15
9.54057e-16
4.43897e-16
1.03357e-16
4.36775e-17
1.04016e-17
3.79246e-18
1.11402e-18
2.95046e-19
2.17203e-19
2.7364e-20
8.6805e-20
5.16605e-21
4.79821e-20
9.92458e-22
4.08141e-20
-4.99867e-23
1.31543e-19
-3.27637e-22
1.28152e-18
-1.65216e-21
3.53957e-18
-1.15384e-20
3.5129e-18
-3.90446e-20
-5.28277e-20
2.48601e-18
-7.13737e-20
3.21395e-19
6.15476e-18
2.74048e-17
6.76802e-17
1.11542e-16
7.57534e-16
5.25264e-16
9.93202e-15
2.42043e-15
3.47232e-14
5.2675e-15
3.42089e-14
1.94897e-15
9.30601e-15
2.67411e-15
2.50086e-15
1.12749e-15
5.0168e-16
2.49968e-16
6.52821e-17
3.01321e-17
7.43105e-18
3.17108e-18
7.49651e-19
2.8173e-19
8.31055e-20
2.24329e-20
1.90381e-20
2.3584e-21
8.46994e-21
5.62108e-22
3.89334e-21
1.4242e-22
1.90826e-21
1.4058e-23
1.63674e-21
-6.30419e-24
6.49987e-21
-1.3427e-23
3.02477e-20
-1.45017e-22
5.50736e-20
-7.2028e-22
-1.45662e-21
5.24762e-20
2.34674e-21
3.24958e-20
1.38607e-18
2.84787e-18
1.04216e-17
9.421e-18
9.0332e-17
4.68716e-17
8.94626e-16
2.99534e-16
2.51441e-15
8.05483e-16
2.47758e-15
7.15057e-16
9.45768e-16
3.98614e-16
1.95073e-16
9.61471e-17
3.17046e-17
1.50662e-17
4.27143e-18
1.96088e-18
4.81998e-19
2.08471e-19
4.80583e-20
1.84762e-20
5.64742e-21
1.51342e-21
1.52346e-21
1.8695e-22
7.3724e-22
5.30091e-23
3.34519e-22
1.54097e-23
1.15596e-22
2.84411e-24
4.87503e-23
-1.01148e-25
4.57439e-23
-8.3189e-25
4.81374e-22
-5.24133e-24
1.37747e-21
-2.12662e-23
-5.86958e-23
1.81038e-21
4.18696e-22
3.01994e-21
1.82854e-19
2.7028e-19
1.07318e-18
7.4304e-19
8.1502e-18
3.1507e-18
7.56804e-17
2.24949e-17
1.94024e-16
7.28741e-17
1.93116e-16
6.52201e-17
5.99911e-17
2.40138e-17
1.1808e-17
5.40575e-18
1.92221e-18
9.00851e-19
2.54614e-19
1.17412e-19
2.80817e-20
1.23497e-20
2.78317e-21
1.08807e-21
3.60503e-22
9.32063e-23
1.14269e-22
1.4076e-23
5.80665e-23
4.50933e-24
2.56964e-23
1.37028e-24
8.66864e-24
2.89393e-25
4.24846e-24
2.24053e-26
4.03704e-24
-3.9456e-26
1.92127e-23
-2.00407e-25
4.92092e-23
-9.23387e-25
-7.39843e-24
1.0102e-22
4.91741e-23
2.5876e-22
1.90805e-20
2.33164e-20
9.14892e-20
5.52319e-20
6.04232e-19
2.06934e-19
5.20372e-18
1.33811e-18
1.27292e-17
4.04007e-18
1.16308e-17
3.29788e-18
3.43206e-18
1.30447e-18
6.73462e-19
3.02652e-19
1.06808e-19
5.01149e-20
1.37783e-20
6.43649e-21
1.48385e-21
6.66976e-22
1.47879e-22
5.84202e-23
2.20655e-23
5.36847e-24
8.09201e-24
1.01215e-24
4.09824e-24
3.39486e-25
1.63045e-24
9.24163e-26
5.21365e-25
1.65037e-26
3.16745e-25
2.70083e-27
3.04542e-25
-6.12165e-28
8.53189e-25
-8.35504e-27
2.8604e-24
-1.0085e-25
-2.12787e-24
1.89516e-23
4.74214e-24
2.06865e-23
1.69363e-21
1.84672e-21
6.82374e-21
3.80648e-21
4.03421e-20
1.30833e-20
3.1774e-19
7.82468e-20
7.32392e-19
2.19569e-19
6.39447e-19
1.76965e-19
1.84228e-19
6.94914e-20
3.52897e-20
1.58887e-20
5.43906e-21
2.58624e-21
6.82296e-22
3.26122e-22
7.17801e-23
3.31963e-23
7.32302e-24
2.89941e-24
1.30437e-24
2.96567e-25
5.21675e-25
6.62273e-26
2.31493e-25
1.80622e-26
6.22446e-26
3.29946e-27
1.42247e-26
3.08904e-28
1.08205e-26
5.45222e-29
1.41209e-26
1.35518e-29
5.2515e-26
-4.88401e-28
4.38477e-25
-1.83896e-26
-5.45799e-25
6.43196e-24
4.02775e-25
1.55009e-24
1.32244e-22
1.35477e-22
4.54676e-22
2.43717e-22
2.46578e-21
7.7863e-22
1.79902e-20
4.38861e-21
3.9279e-20
1.16161e-20
3.25978e-20
9.10141e-21
9.14597e-21
3.48843e-21
1.70792e-21
7.8212e-22
2.55684e-22
1.24796e-22
3.11444e-23
1.54026e-23
3.2073e-24
1.53665e-24
3.4471e-25
1.34983e-25
7.06114e-26
1.59715e-26
2.37715e-26
2.92841e-27
5.41919e-27
8.86031e-27
7.76115e-28
1.40509e-27
9.24268e-29
1.41864e-28
5.65823e-29
1.43225e-29
3.12032e-28
1.16435e-29
4.89169e-27
9.33393e-30
9.89121e-26
-2.74089e-27
-8.821e-26
1.68494e-24
3.10955e-26
1.08798e-25
9.27054e-24
9.27711e-24
2.74674e-23
1.46168e-23
1.39127e-22
4.37474e-23
9.50029e-22
2.33822e-22
1.97289e-21
5.84508e-22
1.55011e-21
4.443e-22
4.2255e-22
1.6573e-22
7.68655e-23
3.63486e-23
1.11647e-23
5.67006e-24
1.31889e-24
6.83022e-25
1.33646e-25
6.67106e-26
1.55679e-26
5.99697e-27
2.68877e-27
7.85412e-28
2.32688e-27
1.55748e-27
-1.30727e-27
-7.21608e-28
-5.28449e-27
-2.32018e-27
-5.13908e-27
-1.6868e-27
-3.06371e-27
-6.66384e-28
-1.23676e-27
-1.29972e-28
-1.70381e-28
3.70515e-30
1.72091e-26
-2.50355e-28
-9.45575e-27
2.748e-25
2.20477e-27
6.97808e-27
5.91598e-25
5.97349e-25
1.52104e-24
8.27431e-25
7.30922e-24
2.3367e-24
4.70363e-23
1.18866e-23
9.3191e-23
2.80882e-23
6.91526e-23
2.069e-23
1.82775e-23
7.4956e-24
3.23465e-24
1.60434e-24
4.55238e-25
2.44038e-25
5.2113e-26
2.86205e-26
5.25014e-27
2.73831e-27
6.38929e-28
2.59024e-28
6.23892e-28
3.46921e-29
-1.3532e-27
-1.02101e-27
-5.14076e-27
-3.23618e-27
-6.72172e-27
-3.42273e-27
-5.17956e-27
-2.02586e-27
-2.77304e-27
-7.57268e-28
-1.10098e-27
-1.68484e-28
-2.87883e-28
-8.31745e-30
2.06378e-27
-1.38427e-29
-9.70039e-28
3.09413e-26
1.38124e-28
3.48189e-28
3.47207e-26
3.64002e-26
7.78356e-26
4.45232e-26
3.60083e-25
1.19353e-25
2.19393e-24
5.7946e-25
4.15648e-24
1.29534e-24
2.90706e-24
9.23658e-25
7.43531e-25
3.24408e-25
1.27814e-25
6.76102e-26
1.74029e-26
1.00039e-26
1.93042e-27
1.13976e-27
1.96594e-28
1.07185e-28
2.71067e-29
1.10833e-29
2.64733e-29
1.82543e-30
-1.65546e-27
-1.41561e-27
-3.96962e-27
-2.86144e-27
-4.32365e-27
-2.55815e-27
-2.96368e-27
-1.37791e-27
-1.44717e-27
-4.89404e-28
-5.34413e-28
-1.11712e-28