/*--------------------------------*- C++ -*----------------------------------*\
| =========                 |                                                 |
| \\      /  F ield         | OpenFOAM: The Open Source CFD Toolbox           |
|  \\    /   O peration     | Version:  5.x                                   |
|   \\  /    A nd           | Web:      www.OpenFOAM.org                      |
|    \\/     M anipulation  |                                                 |
\*---------------------------------------------------------------------------*/
FoamFile
{
    version     2.0;
    format      ascii;
    class       volScalarField;
    location    "0.9";
    object      alpha.water;
}
// * * * * * * * * * * * * * * * * * * * * * * * * * * * * * * * * * * * * * //

dimensions      [0 0 0 0 0 0 0];

internalField   nonuniform List<scalar> 
2268
(
1
1
1
1
1
1
1
1
1
1
1
1
1
1
1
0.975109
0.901184
0.991697
0.999984
0.993777
0.992605
0.998335
0.999959
1
1
1
1
1
1
1
1
1
1
1
1
1
0.999999
0.986962
0.921964
0.915799
0.992498
0.992618
0.96973
0.96973
0.995984
1
1
1
1
1
1
1
1
1
1
1
1
1
1
1
0.996078
0.964386
0.951381
0.964039
0.971698
0.975222
0.977481
0.998365
1
1
1
1
1
1
1
1
1
1
1
1
1
1
1
1
0.999995
0.997883
0.996698
1
1
1
1
0.999989
1
1
1
1
1
1
1
1
1
1
1
1
1
1
1
1
1
1
1
1
1
1
1
1
1
1
1
1
1
1
1
1
1
1
1
1
1
1
1
1
1
1
1
1
1
1
1
1
1
1
0.999997
0.999837
0.999454
1
1
1
1
1
1
1
1
1
1
1
1
1
1
1
1
1
1
1
1
1
0.99823
0.995814
0.999986
0.999996
0.999996
1
1
1
1
1
1
1
1
1
0.999999
0.999998
0.999992
1
0.984076
1
0.987683
0.929688
0.978851
0.99817
1
0.97248
0.724385
0.419368
0.452121
0.627009
0.765821
0.771834
0.920505
1
0.946927
0.598816
0.610977
0.99814
0.983714
0.81256
0.799838
0.879291
0.998936
0.999944
0.967299
0.301251
0.165507
0.159492
0.19685
0.380521
0.673835
0.926899
0.955282
0.709353
0.720239
1
1
0.908453
0.73041
0.835141
0.939304
0.997097
0.999803
0.757773
0.267523
0.15681
0.150735
0.148231
0.411912
0.724304
0.925857
0.868663
0.685645
0.805879
1
1
0.906027
0.730063
0.993909
0.994582
0.99536
0.925589
0.194209
0.148627
0.156571
0.159563
0.138736
0.252075
0.603278
0.886217
0.855346
0.685645
0.965688
1
0.996095
0.883954
0.735246
0.983227
0.993588
0.991526
0.586775
0.18184
0.0358094
0.0480959
0.0566917
0.0191612
0.0273658
0.341952
0.807411
0.926106
0.863754
0.948861
0.745623
0.775042
0.774213
0.957059
0.984909
0.99297
0.766629
0.117014
0.0639015
0.02038
0.0159572
0.0149288
0.0155924
0.0162468
0.0852123
0.718311
0.92626
0.926161
0.919785
0.401109
0.911576
0.858622
0.996173
0.99198
0.892766
0.303315
0.0490555
0.0484622
0.187179
0.0306987
0.0149288
0.0149288
0.0173488
0.320263
0.818137
0.92626
0.926312
0.926161
0.24795
1
0.999508
0.996866
0.983518
0.630354
0.0514343
0.0483951
0.130211
0.263088
0.088412
0.0149288
0.0161029
0.223767
0.811347
0.925887
0.926294
0.920496
0.807843
0.640035
0.999975
1
1
1
1
0.999981
0.999905
0.999962
0.980162
0.921894
0.874722
0.84263
0.853461
0.929233
0.986532
0.998682
0.998484
0.994396
0.989883
0.986898
0.987168
0.977205
0.973514
0.80829
0.96337
0.985994
0.951377
0.997898
0.999979
0.999918
0.844872
0.403644
0.190341
0.131205
0.112256
0.12757
0.252074
0.482935
0.59218
0.547906
0.474998
0.438886
0.43731
0.442327
0.432748
0.750702
0.585716
0.940187
0.985264
0.845116
0.643583
0.504049
0.233397
0.144382
0.0859428
0.0211095
0.000974319
0.00102707
0.00145023
0.00589882
0.00894677
0.00879001
0.00907246
0.00967356
0.00996914
0.0107555
0.020829
0.414589
0.932399
0.795712
0.840125
0.531302
0.259317
0.216454
0.235674
0.249824
0.14358
0.017516
0.00150466
0.000977178
0.000976662
0.00102702
0.00127041
0.00390731
0.0142775
0.0153824
0.0189679
0.0107555
0.012641
0.0137993
0.111182
0.743043
0.845745
0.387689
0.0722071
0.0725858
0.231869
0.249824
0.252506
0.249824
0.0993282
0.000977178
0.000972037
0.000977178
0.00105857
0.00142857
0.00286591
0.0525834
0.305039
0.403687
0.169957
0.0137993
0.02298
0.0656359
0.497401
0.777508
0.0482091
0.0049532
0.0727878
0.106863
0.088065
0.110277
0.167895
0.11724
0.00529453
0.000974196
0.000972699
0.00102149
0.00125687
0.00223355
0.0711452
0.490537
0.524867
0.524867
0.359953
0.317269
0.547003
0.777323
0.630394
0.00458774
0.00131891
0.0084476
0.000245265
0.000105144
0.0003245
0.000936182
0.0271716
0.0903537
0.0932295
0.0227199
0.00123723
0.00135498
0.0018194
0.098829
0.46926
0.524867
0.50258
0.538277
0.57964
0.709328
0.922292
0.166691
0.00165035
0.000372107
0.000149226
2.48034e-05
9.30055e-06
2.53228e-05
8.94829e-05
0.00755955
0.0773483
0.0964846
0.0969828
0.0855691
0.0377062
0.0500317
0.210101
0.213308
0.10515
0.0118045
0.000179172
0.000548988
0.00524886
0.470352
-3.90283e-08
0.000289326
0.000122796
2.4602e-05
3.16266e-06
9.71312e-07
5.60338e-06
4.89806e-05
6.1572e-05
5.99455e-06
0.00307505
0.0713915
0.125796
0.126158
0.113138
0.00489863
5.62218e-05
6.18228e-05
6.93885e-05
9.40775e-05
0.000135885
0.000253335
0.000817861
0.0679222
0.000105579
2.54927e-05
3.16046e-06
5.17202e-07
1.16823e-07
1.76612e-07
2.42483e-07
2.44974e-07
1.14258e-06
3.00705e-07
7.56901e-07
3.49156e-06
5.92293e-06
1.58306e-05
2.8583e-05
4.15174e-05
6.14544e-05
8.31359e-05
9.96275e-05
0.000113033
0.000140469
0.000162347
0.469679
2.72577e-05
4.68817e-06
4.57701e-07
7.74249e-08
1.65124e-08
1.88832e-08
2.1488e-08
1.72889e-08
1.07928e-08
3.41032e-08
2.68103e-07
7.56909e-07
3.48905e-06
0.000124632
0.000478809
0.000597327
0.000419128
0.000261687
0.000124652
0.000142699
0.000167915
0.000119591
0.49475
6.9079e-06
8.59043e-07
7.30614e-08
1.33665e-08
3.48368e-09
3.12665e-09
2.78493e-09
2.15746e-09
1.71814e-09
3.613e-09
2.84355e-08
2.56409e-07
1.8017e-06
0.000170144
0.000985911
0.00113935
0.0011499
0.00114959
0.00115007
0.000906185
0.000351587
8.00574e-05
0.183455
0.000274939
1.5883e-07
1.34811e-08
3.46461e-09
1.69367e-09
1.43021e-09
1.25038e-09
1.12595e-09
1.09025e-09
1.15484e-09
1.12811e-08
3.57333e-07
2.60879e-06
7.43647e-06
1.31948e-05
0.000353603
0.000767265
0.00113001
0.00149717
0.00155069
0.00160237
0.000712975
-3.47757e-06
0.000510093
7.97708e-06
3.50207e-09
1.68013e-09
1.43263e-09
1.25186e-09
1.13034e-09
1.0906e-09
1.09061e-09
1.0906e-09
1.12651e-09
2.09069e-08
6.08928e-08
8.09934e-09
1.94376e-07
2.67717e-09
2.57738e-09
2.73765e-09
7.80347e-05
0.000866395
0.00161192
0.0016159
-1.34697e-07
0.000350084
2.87905e-06
2.21863e-09
1.87582e-09
1.70216e-09
1.43334e-09
1.25135e-09
1.13034e-09
1.08935e-09
1.10096e-09
1.12e-09
5.40322e-09
6.65886e-09
6.67047e-09
3.46257e-09
2.57726e-09
2.64828e-09
1.07186e-05
1.29461e-09
4.73365e-10
0.00124415
0.00163558
-5.97884e-08
0.000257313
5.11665e-06
7.07082e-09
2.21948e-09
1.49559e-09
1.5878e-09
5.07908e-06
5.21818e-08
3.05552e-08
3.0521e-09
1.1068e-09
3.02557e-09
1.25586e-08
1.59464e-08
1.58828e-08
8.04001e-09
2.07584e-09
1.05707e-09
4.73365e-10
4.6054e-10
4.73365e-10
0.00101831
-1.07838e-09
0.000519913
2.04995e-05
1.15114e-08
1.30513e-08
1.52092e-05
0.00012254
0.000213003
7.85804e-05
4.96801e-06
3.31971e-07
4.27147e-09
3.33987e-09
4.33602e-09
1.15318e-08
1.51787e-08
1.17297e-08
4.49514e-09
6.27668e-10
1.051e-09
9.39934e-10
5.30404e-10
5.53133e-10
-4.23511e-09
0.000297228
0.000127771
1.13723e-06
3.91047e-07
1.63839e-06
0.000233026
0.000239068
0.000237991
9.14784e-05
1.29063e-06
3.6022e-08
5.79167e-09
2.91746e-09
2.50764e-09
3.30649e-09
3.41588e-09
2.36035e-09
5.9502e-10
1.51893e-09
1.78397e-09
6.52832e-10
6.60264e-10
-2.18031e-10
7.53809e-06
0.00012911
2.20901e-05
1.63839e-06
4.9556e-06
0.000172855
0.000237991
0.000238792
0.000163606
4.36348e-06
1.50795e-07
1.62855e-08
1.90495e-09
5.08186e-10
3.48562e-10
3.38958e-10
3.71867e-10
2.72038e-10
2.12621e-10
1.61594e-10
1.74967e-11
1.16104e-07
-1.30616e-10
2.36807e-07
1.69597e-05
2.9767e-05
1.17215e-05
3.31848e-05
0.000207815
0.000236371
0.000237991
0.000136636
3.65711e-06
2.40808e-07
2.73878e-08
3.00633e-09
4.47604e-10
1.61516e-10
1.25227e-10
1.24818e-10
1.15612e-10
8.10281e-11
2.324e-11
1.71237e-11
6.64579e-07
-6.49489e-15
2.24075e-12
4.77759e-07
1.3569e-05
6.55435e-05
0.000206229
0.000230814
0.000234194
0.000236371
7.31476e-05
1.36556e-06
1.84792e-07
2.20331e-08
2.44748e-09
3.27465e-10
8.98233e-11
6.20135e-11
5.78746e-11
5.41575e-11
4.54056e-11
3.02095e-11
1.68662e-11
1.26982e-11
-1.21035e-13
7.97532e-11
1.20717e-08
6.03665e-07
0.000211489
0.000228849
0.000232529
0.000231485
0.000152868
9.41509e-06
4.71298e-07
6.37671e-08
7.63649e-09
8.5702e-10
1.31359e-10
3.6534e-11
2.47004e-11
2.2821e-11
2.21471e-11
2.03111e-11
1.57312e-11
1.24508e-11
1.25617e-11
-2.69114e-14
9.30112e-11
6.54543e-09
1.35601e-07
8.34343e-05
0.000216613
0.000228849
0.000152297
1.68218e-05
6.89993e-07
9.95653e-08
1.27901e-08
1.49891e-09
1.9574e-10
3.24595e-11
1.26866e-11
7.22913e-12
6.46106e-12
6.85515e-12
7.25941e-12
7.84279e-12
1.00368e-11
1.41993e-11
-4.96925e-14
6.83676e-11
5.48672e-09
4.29993e-07
1.83375e-06
4.28452e-05
4.95156e-05
1.19458e-05
7.34044e-07
1.37054e-07
1.86947e-08
2.20715e-09
2.83625e-10
3.93655e-11
1.0168e-11
3.04725e-12
1.56961e-12
1.40928e-12
1.56296e-12
2.29151e-12
4.9662e-12
1.24439e-11
1.90139e-11
2.00393e-11
4.24849e-11
2.37236e-09
1.05455e-07
1.50784e-07
8.16625e-07
7.14217e-07
2.8709e-07
8.09651e-08
1.71821e-08
2.6714e-09
3.93221e-10
5.46184e-11
1.26481e-11
2.1565e-12
5.53131e-13
2.88754e-13
2.72178e-13
3.54287e-13
1.02437e-12
5.06065e-12
1.39375e-11
1.79903e-11
1.09476e-11
9.92259e-11
2.12249e-10
2.44424e-09
2.08823e-08
9.40341e-08
8.13007e-08
3.20301e-08
8.37732e-09
1.77904e-09
3.3143e-10
6.03723e-11
1.56519e-11
2.26617e-12
2.97736e-13
8.82252e-14
4.72871e-14
4.66942e-14
8.63353e-14
5.3482e-13
2.95011e-12
7.44167e-12
7.83682e-12
1.79533e-12
4.3764e-11
5.57191e-11
1.92357e-10
2.05027e-09
9.1684e-09
7.9098e-09
3.10793e-09
8.71539e-10
2.07087e-10
5.461e-11
1.54897e-11
2.29921e-12
2.26434e-13
3.5484e-14
1.23013e-14
6.38368e-15
5.9911e-15
1.58945e-14
1.49057e-13
7.9433e-13
1.28483e-12
1.15212e-12
1.37965e-13
6.90322e-12
1.85164e-11
3.11308e-11
2.40339e-10
7.89878e-10
6.81982e-10
3.11708e-10
9.80418e-11
3.58158e-11
1.16453e-11
1.90552e-12
1.92094e-13
2.00199e-14
3.61095e-15
1.49167e-15
7.29874e-16
4.81169e-16
1.07577e-15
9.89724e-15
4.151e-14
5.31288e-14
4.54646e-14
1.23852e-14
7.49419e-13
3.21593e-12
9.03568e-12
2.71556e-11
8.11795e-11
7.12969e-11
3.3942e-11
1.89666e-11
6.63826e-12
1.18815e-12
1.38802e-13
1.46244e-14
1.57453e-15
3.25688e-16
1.55392e-16
7.64112e-17
3.36764e-17
2.21269e-17
5.98914e-17
2.96746e-16
8.04497e-16
9.17677e-16
1.27875e-15
7.90038e-14
3.1004e-13
1.44456e-12
4.89154e-12
7.48903e-12
7.55816e-12
7.50431e-12
2.86268e-12
5.62715e-13
7.87871e-14
9.52757e-15
1.00155e-15
1.12566e-16
2.75952e-17
1.4421e-17
7.15583e-18
3.08019e-18
8.29836e-19
7.14301e-19
4.77824e-18
1.79373e-17
3.00309e-17
1.25829e-16
7.90766e-15
2.51657e-14
1.14244e-13
6.1033e-13
1.35668e-12
1.32289e-12
8.06918e-13
1.9996e-13
3.45309e-14
4.97574e-15
5.94424e-16
6.19009e-17
7.56025e-18
2.26001e-18
1.22849e-18
6.04094e-19
2.51943e-19
7.23327e-20
6.918e-20
2.283e-19
6.54585e-19
1.51884e-18
1.14017e-17
7.26839e-16
1.95152e-15
7.49952e-15
4.25544e-14
1.15858e-13
1.02969e-13
4.69288e-14
1.15027e-14
2.03302e-15
2.88197e-16
3.36976e-17
3.50551e-18
4.89358e-19
1.78431e-19
9.66701e-20
4.4153e-20
1.63852e-20
5.6653e-21
5.71697e-21
1.18397e-20
3.69389e-20
2.58137e-19
9.60995e-19
6.12852e-17
1.42991e-16
4.91432e-16
2.52714e-15
6.36189e-15
5.4957e-15
2.59379e-15
6.37214e-16
1.10707e-16
1.53239e-17
1.75331e-18
1.84866e-19
3.10779e-20
1.33119e-20
6.54944e-21
2.27993e-21
4.97061e-22
1.99969e-22
2.55456e-22
7.15563e-22
5.46891e-21
9.16959e-20
7.58972e-20
4.77485e-18
9.75238e-18
3.09274e-17
1.48952e-16
3.51488e-16
2.98895e-16
1.37081e-16
3.29217e-17
5.59183e-18
7.54356e-19
8.45395e-20
9.26263e-21
1.97401e-21
8.21842e-22
2.14149e-22
3.5234e-23
3.71687e-24
5.87219e-25
4.15176e-24
6.16163e-23
1.29821e-21
2.63244e-20
5.62824e-21
3.46189e-19
6.20821e-19
1.83539e-18
8.40804e-18
1.87468e-17
1.54739e-17
6.81056e-18
1.59295e-18
2.63967e-19
3.46423e-20
3.81386e-21
4.52861e-22
1.20076e-22
1.5269e-23
-3.01629e-23
-1.23904e-22
-1.23378e-22
-7.58323e-23
-3.17607e-23
-4.56487e-24
2.42528e-22
4.76369e-21
3.87762e-22
2.35119e-20
3.71392e-20
1.03093e-19
4.51347e-19
9.5097e-19
7.59493e-19
3.19771e-19
7.26678e-20
1.17217e-20
1.49428e-21
1.62766e-22
2.22577e-23
5.23575e-24
-3.5127e-23
-1.34145e-22
-1.77823e-22
-1.39988e-22
-7.71018e-23
-3.16906e-23
-8.63246e-24
2.87878e-23
6.00327e-22
2.2495e-23
1.50506e-21
2.1011e-21
5.51316e-21
2.31423e-20
4.60696e-20
3.55123e-20
1.42681e-20
3.14318e-21
4.92434e-22
6.0928e-23
6.66295e-24
1.11054e-24
2.97327e-25
-4.90357e-23
-1.18012e-22
-1.30126e-22
-9.10222e-23
-4.56939e-23
-1.74687e-23
-4.95849e-24
2.18979e-24
7.61512e-23
2.65799e-25
9.10994e-23
1.13021e-22
2.82169e-22
1.13853e-21
2.14138e-21
1.58903e-21
6.07955e-22
1.29548e-22
1.96678e-23
2.36293e-24
2.66346e-25
5.69669e-26
1.79926e-26
-3.47929e-23
-7.08195e-23
-6.93441e-23
-4.37776e-23
-1.99396e-23
-6.92355e-24
-1.82672e-24
3.28086e-26
1.22299e-23
-1.84079e-25
5.05528e-24
5.76224e-24
1.38847e-23
5.398e-23
9.5943e-23
6.83474e-23
2.48539e-23
5.11174e-24
7.50314e-25
8.78113e-26
1.06507e-26
3.01292e-27
1.04859e-27
-1.878e-23
-3.39368e-23
-2.98838e-23
-1.70046e-23
-6.95749e-24
-2.15317e-24
-5.04471e-25
-7.83393e-27
2.12171e-24
-1.10563e-24
1.747e-25
2.51443e-25
6.50614e-25
2.478e-24
4.16706e-24
2.83823e-24
9.78369e-25
1.9371e-25
2.74248e-26
3.15523e-27
4.38524e-28
1.62773e-28
5.81986e-29
-8.54177e-24
-1.38383e-23
-1.09412e-23
-5.56699e-24
-2.01946e-24
-5.46765e-25
-1.10139e-25
8.1886e-28
3.10268e-25
-9.32991e-25
9.46505e-28
2.45704e-27
2.49135e-26
1.04976e-25
1.4708e-25
1.05608e-25
3.62291e-26
7.00514e-27
9.62901e-28
1.11016e-28
1.89168e-29
8.86144e-30
3.14478e-30
-3.40978e-24
-4.95988e-24
-3.51005e-24
-1.58723e-24
-5.06145e-25
-1.18571e-25
-2.01678e-26
7.33371e-28
3.19867e-26
-5.52213e-25
-4.48939e-26
-5.29006e-27
2.89014e-28
6.15322e-27
2.80387e-26
1.00668e-26
1.91149e-27
2.61117e-28
2.8465e-29
3.24506e-30
7.33609e-31
2.72593e-31
8.07922e-32
-1.25761e-24
-1.60583e-24
-9.89503e-25
-3.84567e-25
-1.03388e-25
-1.98368e-26
-2.60785e-27
9.89142e-29
1.29558e-27
0.993708
0.998453
1
0.999999
0.924558
0.960162
0.989399
0.999839
0.954343
0.956281
0.909088
0.873381
0.95108
0.954343
0.94201
0.833142
0.949338
0.949655
0.94667
0.941637
0.942425
0.94667
0.943177
0.937391
0.940133
0.943177
0.938922
0.933149
0.906084
0.938922
0.933146
0.926354
0.267133
0.759552
0.875102
0.913769
0.000270529
0.000873777
0.11475
0.525884
7.96598e-05
6.66714e-05
4.52461e-05
0.000203429
6.88739e-05
4.86793e-05
2.13144e-05
-3.07468e-06
0.000129555
2.13588e-05
5.0536e-06
7.73512e-07
0.00163558
0.00044058
0.000271158
2.57427e-05
0.00163592
0.00163558
0.00163558
0.00115943
0.00156119
0.00163592
0.00161406
0.0015922
3.21284e-05
0.000526401
0.00119893
0.00158877
4.69095e-09
2.5323e-08
6.66023e-08
0.000258427
6.62309e-07
1.29972e-06
5.84101e-07
3.84042e-08
1.82928e-06
1.84824e-06
1.84553e-06
9.17759e-07
1.28388e-11
1.29418e-11
1.462e-11
1.49067e-11
1.26982e-11
1.4661e-11
2.21353e-11
1.46852e-11
1.71174e-11
1.74992e-11
1.70647e-11
1.47948e-11
1.93175e-11
1.93175e-11
1.86032e-11
1.43676e-11
1.79376e-11
1.68716e-11
1.34852e-11
7.93843e-12
7.15314e-12
5.67599e-12
3.57686e-12
1.59688e-12
8.89043e-13
6.12326e-13
3.38328e-13
1.51517e-13
3.35971e-14
2.36127e-14
1.56437e-14
1.09952e-14
8.83901e-16
8.20939e-16
7.37366e-16
6.36954e-16
3.47745e-17
3.59764e-17
3.8683e-17
4.38367e-17
2.61482e-18
3.92471e-18
6.82374e-18
1.10432e-17
7.05485e-19
1.38098e-18
2.92879e-18
5.15857e-18
2.75357e-19
5.52616e-19
1.1554e-18
1.98683e-18
7.77919e-20
1.51968e-19
3.03265e-19
4.92512e-19
1.36534e-20
2.59005e-20
4.94457e-20
7.54836e-20
1.69185e-21
3.16426e-21
5.82828e-21
8.52421e-21
2.14993e-22
3.98031e-22
7.02108e-22
1.02392e-21
3.40411e-23
5.92601e-23
9.93523e-23
1.57496e-22
5.46603e-24
8.3491e-24
1.47859e-23
2.83529e-23
6.64116e-25
8.7573e-25
2.02054e-24
4.13809e-24
5.0535e-26
5.90038e-26
1.97525e-25
2.91561e-25
1.52039e-27
1.82927e-27
5.04379e-27
7.53226e-27
0.999998
0.999994
0.984967
0.909286
0.29411
0.0520689
0.0512299
0.246619
0.27112
0.119972
0.0161029
0.331132
0.75618
0.783593
0.715801
0.576414
0.420218
0.297567
0.882401
0.999987
0.999993
0.998377
0.679683
0.0647672
0.0519982
0.0635378
0.26868
0.276519
0.154629
0.0282305
0.224989
0.421671
0.227501
0.0145053
0.000175435
0.000174833
0.000194153
0.215228
0.918236
0.992515
0.923412
0.290511
0.0537728
0.0520689
0.121125
0.231242
0.27804
0.234633
0.0387092
0.0370101
0.0258521
0.000347196
0.000178992
0.000174983
0.000111932
1.7622e-05
0
0.80556
0.854317
0.584963
0.065418
0.0548906
0.169668
0.222823
0.262944
0.27804
0.27804
0.206928
0.0495808
0.0310723
0.0269919
0.014965
0.000178992
0.00246366
0.00260066
-4.97665e-20
0.824368
0.387777
0.0874109
0.0412404
0.164183
0.267469
0.270836
0.273145
0.2741
0.244281
0.244666
0.231616
0.0411705
0.00125004
0.00443493
0.00390402
0.00497843
0.00523353
0.00521413
0.820569
0.226923
0.0341609
0.0323953
0.195614
0.25673
0.106648
0.0159002
0.00844415
0.00819619
0.0081963
0.0096396
0.00391043
0.000835864
0.000785517
0.00450365
0.00315911
0.0026085
0.00914197
0.855048
0.337696
0.0323955
0.0314659
0.0411128
0.0833115
0.0889807
0.0292699
0.161449
0.0447368
0.0521934
0.0480905
0.0176926
0.000656417
0.000382741
0.000427976
5.39413e-06
1.42134e-06
3.87982e-22
0.909058
0.62845
0.11061
0.0314499
0.0314659
0.0315796
0.0321529
0.271202
0.528479
0.435886
0.377679
0.216966
0.0171254
0.000497007
0.000125886
4.04341e-05
1.92253e-05
8.57467e-06
1.33193e-05
0.888884
0.625301
0.160831
0.0314659
0.0314659
0.043878
0.178399
0.528709
0.529659
0.503577
0.260849
0.109749
0.0272387
0.00253667
0.000214511
0.000124807
8.85536e-05
0.000233742
4.79529e-05
0.700258
0.64471
0.248829
0.185224
0.249714
0.391421
0.532987
0.532987
0.354548
0.0129766
1.14383e-07
7.98354e-08
0.0218913
0.0354984
0.0193476
0.000515001
0.000279016
0.000308049
2.05033e-05
0.113577
0.46523
0.488427
0.488427
0.488427
0.486311
0.375116
0.192212
2.39153e-07
1.14383e-07
7.98354e-08
7.98308e-08
7.98308e-08
0.0326438
0.0373437
0.0329712
0.00216695
2.39673e-06
3.88079e-22
-4.0398e-06
0.002256
0.143576
0.202965
0.168434
0.0426131
3.29636e-07
2.74177e-07
1.52263e-07
8.09878e-08
8.0249e-08
7.92966e-08
8.02444e-08
2.59813e-07
0.0151522
0.0131679
0.00125566
4.4203e-08
-6.09784e-24
5.19826e-08
5.2422e-08
5.23289e-08
5.65855e-08
6.8584e-08
8.81722e-08
5.57464e-07
2.00853e-06
2.8547e-06
1.43851e-06
8.19622e-08
2.83804e-08
5.40841e-08
2.40718e-05
0.000640908
0.000492172
0.000364682
8.33334e-08
1.215e-23
4.77782e-08
5.23129e-08
1.58894e-07
3.47269e-07
2.79957e-07
8.80336e-07
2.94876e-06
3.07849e-06
3.07849e-06
3.07849e-06
1.73175e-07
4.66255e-09
1.02524e-08
1.17797e-05
7.04143e-05
4.72087e-06
7.97784e-07
6.55419e-07
0
0.000195455
6.49289e-08
2.08896e-07
4.01096e-07
4.01096e-07
5.97381e-08
1.6696e-07
1.93861e-06
2.65672e-06
7.1687e-07
1.96391e-07
3.98568e-09
3.28845e-09
5.00374e-09
1.31361e-07
3.45022e-07
5.25011e-06
3.23287e-06
7.28594e-05
0.00122286
1.72937e-07
1.36705e-07
8.34749e-08
7.63736e-08
2.72227e-10
2.67551e-10
2.69678e-10
2.7181e-10
2.72744e-10
3.1806e-08
4.7011e-09
3.01144e-09
3.28824e-09
1.07815e-08
8.09775e-08
6.34968e-06
1.47277e-05
0.000510848
0.00130203
1.93332e-05
8.80603e-07
5.59854e-07
1.07426e-09
2.67551e-10
2.55948e-10
2.67542e-10
2.69678e-10
2.71965e-10
2.75904e-10
6.91914e-09
2.1098e-09
2.72521e-09
1.15449e-06
4.60479e-06
1.2658e-06
6.32021e-05
0.000454534
0.000212184
3.78502e-05
5.89139e-06
1.94112e-06
1.0688e-09
2.58278e-10
2.45519e-10
2.72264e-10
2.73921e-10
3.44554e-10
5.57154e-10
9.95371e-10
2.09021e-09
3.54155e-09
4.97249e-09
4.18357e-07
4.17949e-07
0.000192474
-3.87981e-22
1.9924e-08
2.76734e-05
1.25004e-05
1.97587e-06
1.47496e-09
1.54896e-10
2.00162e-10
2.80328e-10
3.19086e-10
4.9385e-10
1.06129e-09
1.03681e-09
1.38315e-09
2.52988e-09
2.02621e-09
2.0297e-09
5.19279e-05
0.000201211
1.97428e-05
3.31398e-11
1.52356e-10
1.9714e-10
1.04554e-06
1.91304e-07
6.61588e-11
1.41085e-10
2.85591e-10
3.50722e-10
5.11812e-10
8.93822e-10
1.05309e-09
1.63308e-09
2.01759e-09
2.02125e-09
2.02621e-09
0.000105831
0.000201211
4.09707e-05
1.50089e-11
1.01121e-10
1.31015e-10
7.28703e-11
6.62536e-11
6.52215e-11
1.41186e-10
2.54736e-10
3.24404e-10
3.966e-10
4.29214e-10
1.03839e-09
3.30154e-09
2.07635e-09
2.02621e-09
2.03397e-09
0.000112149
0.000201211
2.31429e-05
6.18761e-10
1.94303e-09
1.88943e-09
1.14372e-09
1.79032e-10
6.31678e-11
1.16413e-10
2.03489e-10
2.66789e-10
2.69197e-10
5.57164e-10
2.41441e-09
1.1491e-08
2.43215e-09
2.03397e-09
1.08038e-06
0.000122291
8.82336e-05
2.38225e-07
9.14273e-12
1.06886e-11
1.05725e-11
1.06177e-11
1.59327e-11
3.81779e-11
7.78344e-11
2.11808e-10
2.61767e-10
5.55279e-10
2.93796e-08
3.97035e-07
1.41629e-08
3.02353e-09
2.16256e-09
1.43095e-06
0.000121871
8.58729e-14
-4.6251e-29
9.11616e-12
9.8512e-12
1.05976e-11
1.10715e-11
1.18559e-11
3.28045e-11
4.51213e-11
1.74691e-09
3.03463e-10
7.73443e-08
1.94005e-06
2.9948e-06
4.16775e-09
3.09695e-09
9.73193e-08
7.73713e-07
1.14654e-06
8.58727e-14
0
2.58707e-12
1.67444e-12
1.62782e-12
2.15111e-12
6.45287e-12
3.16872e-11
3.03096e-11
6.30912e-09
5.21207e-09
5.66412e-07
3.34767e-06
3.34967e-06
1.49584e-07
3.00052e-09
2.74827e-07
5.719e-07
1.56063e-10
1.41886e-10
0
5.3986e-13
3.44616e-13
4.09872e-13
1.20059e-12
6.2275e-12
3.07871e-11
3.03118e-11
7.1828e-09
1.16797e-07
9.52137e-07
3.34932e-06
3.34767e-06
2.0839e-06
7.27449e-10
6.38063e-10
6.15448e-10
5.81516e-10
1.74648e-10
3.78614e-25
7.38109e-14
6.59126e-14
1.3815e-13
1.05667e-12
9.93896e-12
3.16576e-11
3.03094e-11
4.34859e-10
2.60436e-07
9.34991e-07
3.34767e-06
3.32957e-06
3.31271e-06
9.24024e-08
7.03786e-10
6.42186e-10
2.38275e-09
6.0479e-10
-2.8073e-17
8.00983e-15
1.30708e-14
9.40422e-14
1.78139e-12
1.82307e-11
3.73335e-11
3.04206e-11
1.14544e-11
2.12703e-07
4.13202e-07
1.16553e-06
3.00664e-06
3.26687e-06
2.02652e-06
1.56073e-07
7.42825e-10
2.23855e-08
6.0915e-08
-4.11095e-13
6.74496e-16
6.56844e-15
9.14014e-14
2.72357e-12
2.39103e-11
3.88002e-11
3.43208e-11
1.13787e-11
1.54037e-13
1.28466e-08
1.49385e-11
4.3232e-11
1.3409e-06
2.19676e-06
1.2667e-06
5.28616e-08
6.93005e-08
9.21184e-06
1.23011e-05
1.46585e-16
5.2587e-15
9.15218e-14
2.85029e-12
2.25626e-11
3.88002e-11
3.6051e-11
1.30229e-11
3.46285e-14
3.08032e-14
7.1701e-12
1.49385e-11
4.3232e-11
8.11358e-07
8.84084e-07
1.23668e-07
5.60227e-09
1.96113e-05
0.000484878
9.5074e-17
3.01469e-15
6.02136e-14
1.36932e-12
1.09512e-11
2.85151e-11
2.62484e-11
1.33827e-11
1.65937e-12
1.63355e-14
4.47337e-10
1.15064e-09
8.03134e-10
4.50094e-10
4.53585e-10
2.12796e-08
5.5128e-09
1.67754e-10
0.00068952
3.60213e-17
1.54415e-15
2.50987e-14
4.30433e-13
3.53966e-12
8.83288e-12
8.63672e-12
6.1196e-12
1.63563e-12
3.23607e-15
1.04811e-09
2.36703e-09
2.20387e-09
1.17991e-09
4.46893e-10
4.47443e-10
5.5835e-09
5.12717e-11
-7.40015e-28
1.03609e-17
5.64562e-16
1.1764e-14
1.40243e-13
7.97264e-13
1.82817e-12
1.78185e-12
1.29095e-12
4.06739e-13
4.0639e-16
1.10697e-09
2.35864e-09
2.35787e-09
2.14605e-09
7.63844e-10
4.46985e-10
3.69146e-09
5.19407e-10
-1.48003e-27
2.73763e-18
1.60437e-16
2.49686e-15
1.93896e-14
9.60775e-14
2.60173e-13
2.65014e-13
1.99247e-13
6.35031e-14
3.75188e-17
3.2253e-10
1.01453e-09
1.6248e-09
1.71194e-09
7.90582e-10
5.24025e-10
1.29036e-10
4.96592e-11
2.39521e-13
6.17588e-19
2.65987e-17
3.13779e-16
1.39008e-15
6.55081e-15
2.51281e-14
2.92833e-14
2.24938e-14
7.47322e-15
1.46357e-18
1.25601e-11
5.50537e-11
1.75611e-10
4.33432e-10
1.85502e-10
3.10031e-10
4.13019e-11
2.05326e-11
1.86674e-12
1.18462e-19
3.74278e-18
3.83698e-17
1.91279e-16
9.93732e-16
2.82863e-15
2.7052e-15
1.66352e-15
4.26551e-16
-4.18048e-30
-2.52122e-17
-3.01979e-17
-5.77328e-18
2.01505e-11
9.04525e-12
7.46906e-11
4.34931e-11
1.98395e-11
1.55046e-12
2.52965e-20
8.14998e-19
1.59588e-17
8.47689e-17
2.13643e-16
1.87723e-16
1.16336e-16
3.65532e-17
-9.40624e-21
-1.97741e-17
-2.60366e-17
-2.21936e-17
-1.45903e-17
-8.02501e-18
-3.88021e-18
1.02762e-11
3.27016e-12
1.10075e-11
1.29751e-12
9.02771e-21
2.64319e-19
9.25562e-18
3.51289e-17
2.81481e-17
1.30717e-17
1.04188e-18
-1.13261e-18
-9.79241e-18
-1.64385e-17
-1.59203e-17
-1.12867e-17
-6.44049e-18
-3.15371e-18
-1.3627e-18
3.99321e-13
1.01059e-13
4.60045e-12
3.71232e-13
3.53617e-21
6.94974e-20
3.55993e-18
3.45156e-18
1.87124e-18
-1.94947e-20
-1.42051e-18
-2.40996e-18
-6.84969e-18
-8.78348e-18
-6.8701e-18
-4.03855e-18
-1.95788e-18
-8.31065e-19
-3.12191e-19
-7.85412e-20
-1.1994e-20
1.10802e-12
6.08553e-14
9.13055e-22
1.04575e-20
1.76674e-19
1.51036e-19
4.35473e-20
-6.92457e-19
-1.0621e-18
-1.35203e-18
-3.2014e-18
-3.17357e-18
-1.91822e-18
-8.89625e-19
-3.49384e-19
-1.23239e-19
-3.8836e-20
-8.60253e-21
-1.1732e-21
1.26382e-13
5.66638e-15
1.17028e-22
7.29121e-22
3.5534e-21
2.23706e-21
4.25015e-22
-3.39898e-19
-3.63311e-19
-4.20616e-19
-9.26062e-19
-6.60284e-19
-2.78691e-19
-9.00686e-20
-2.47666e-20
-6.19557e-21
-1.39618e-21
-2.36114e-22
-2.52839e-23
5.89908e-15
1.916e-16
3.68082e-24
7.65013e-24
6.38247e-24
3.07153e-24
3.03254e-25
-7.75689e-20
-4.33558e-20
-4.8771e-20
-1.26097e-19
-5.71453e-20
-1.39478e-20
-2.47717e-21
-3.53892e-22
-4.32796e-23
-4.56777e-24
-4.09036e-25
-3.56795e-26
-2.68289e-27
-5.70385e-29
)
;

boundaryField
{
    leftWall
    {
        type            zeroGradient;
    }
    rightWall
    {
        type            zeroGradient;
    }
    lowerWall
    {
        type            zeroGradient;
    }
    atmosphere
    {
        type            inletOutlet;
        inletValue      uniform 0;
        value           nonuniform List<scalar> 
46
(
-5.52213e-25
-4.48939e-26
-5.29006e-27
2.89014e-28
6.15322e-27
2.80387e-26
1.00668e-26
1.91149e-27
2.61117e-28
2.8465e-29
3.24506e-30
7.33609e-31
2.72593e-31
8.07922e-32
-1.25761e-24
-1.60583e-24
-9.89503e-25
-3.84567e-25
-1.03388e-25
-1.98368e-26
-2.60785e-27
9.89142e-29
1.29558e-27
0
0
0
0
0
0
0
0
0
0
0
0
0
0
0
0
0
0
0
0
0
0
0
)
;
    }
    defaultFaces
    {
        type            empty;
    }
}


// ************************************************************************* //
