/*--------------------------------*- C++ -*----------------------------------*\
| =========                 |                                                 |
| \\      /  F ield         | OpenFOAM: The Open Source CFD Toolbox           |
|  \\    /   O peration     | Version:  5.x                                   |
|   \\  /    A nd           | Web:      www.OpenFOAM.org                      |
|    \\/     M anipulation  |                                                 |
\*---------------------------------------------------------------------------*/
FoamFile
{
    version     2.0;
    format      ascii;
    class       volScalarField;
    location    "0.9";
    object      p;
}
// * * * * * * * * * * * * * * * * * * * * * * * * * * * * * * * * * * * * * //

dimensions      [1 -1 -2 0 0 0 0];

internalField   nonuniform List<scalar> 
2268
(
1039.61
1028.21
1009.59
984.59
957.021
926.885
892.138
852.414
811.782
775.119
746.068
726.15
715.283
712.454
714.683
718.521
724.336
734.251
749.793
771.185
792.469
808.654
814.745
983.993
971.893
951.782
925.26
897.319
868.253
833.781
793.45
751.967
714.629
685.239
665.295
654.598
652.358
656.437
663.352
668.395
671.655
687.561
711.863
732.79
748.123
755.516
928.61
915.67
894.06
865.79
838.079
810.135
775.859
734.383
691.139
652.306
622.202
602.262
592.028
590.689
596.74
606.264
610.58
612.642
629.961
654.397
674.659
689.09
696.995
874.022
859.606
836.596
806.503
778.615
752.593
718.721
675.394
629.327
588.133
557.076
537.092
527.472
527.202
534.384
545.339
552.082
556.866
574.682
597.358
617.039
631.578
639.717
820.755
804.155
779.811
748.098
720.441
697.151
663.291
616.819
566.484
521.847
489.505
469.633
460.853
462.123
470.895
483.205
493.688
503.526
519.55
539.958
559.661
575.354
584.013
769.844
749.924
724.097
691.635
665.405
645.297
610.114
558.838
502.536
453.127
419.802
399.757
392.036
395.465
406.715
420.976
434.503
446.483
462.575
482.281
502.955
520.633
529.899
721.739
697.638
669.451
637.714
614.794
597.748
559.953
501.757
436.968
381.011
347.788
327.143
320.769
327.17
341.862
358.445
374.446
388.604
404.789
424.456
447.119
468.132
477.079
677.077
647.005
615.073
586.323
569.984
555.362
513.666
445.486
368.744
302.98
271.878
256.114
247.26
257.079
276.453
295.838
314.972
330.857
346.737
366.434
392.507
418.881
426.703
725.507
679.376
669.862
652.38
559.308
480.162
447.432
401.962
286.547
256.471
266.197
279.111
321.284
399.888
496.055
531.445
501.315
537.637
608.902
671.072
612.531
610.002
586.523
487.4
412.559
379.737
326.245
255.895
230.974
236.525
247.84
282.894
356.245
444.065
476.53
445.147
481.295
544.578
612.77
544.744
556.957
511.115
398.08
342.327
325.56
277.61
236.127
218.205
224.864
232.646
255.438
312.78
388.048
420.908
391.468
418.828
460.392
551.383
479.795
503.433
428.457
306.467
283.744
278.922
258.974
218.726
195.92
200.861
215.782
228.451
265.659
327.847
366.987
337.691
354.211
377.191
492.674
428.991
456.383
364.066
252.471
246.496
249.098
246.808
209.616
179.498
187.869
209.243
218.003
232.987
274.587
321.215
301.952
296.207
302.376
447.953
401.722
414.572
329.333
237.933
223.021
231.325
240.982
201.939
171.386
181.586
207.023
215.491
227.512
245.564
286.631
295.817
255.403
254.9
407.091
377.723
382.645
312.707
221.482
205.947
221.582
232.558
187.899
162.881
175.9
204.02
212.368
220.763
215.861
248.851
267.59
218.839
229.599
368.731
355.1
356.927
294.099
201.07
194.357
210.767
214.909
171.47
153.315
167.777
194.925
201.194
194.729
178.267
201.59
197.639
150.068
190.082
610.621
568.692
530.702
510.457
512.439
506.717
444.135
359.278
258.949
172.963
136.945
128.943
133.368
148.37
173.832
196.838
220.702
241.257
255.895
276.054
311.959
348.623
356.608
514.538
436.946
396.912
378.209
415.733
438.717
395.562
272.252
134.988
67.6634
46.0603
47.0692
48.936
56.3382
70.2458
92.1399
124.904
152.8
156.96
166.497
224.8
284.833
269.756
444.949
323.087
269.644
237.691
295.839
332.953
293.055
188.458
73.6905
37.5195
37.1861
39.6933
41.6993
44.0561
50.0904
63.9604
88.0318
111.341
123.675
135.048
156.355
185.39
186.573
580.995
331.617
185.877
157.995
191.086
225.101
215.973
124.632
49.0206
36.1852
36.2174
37.6849
38.7191
37.8856
37.9105
47.2894
76.9195
110.6
127.658
135.797
142.061
144.804
134.543
677.979
232.339
103.514
82.2514
83.8349
95.9008
98.108
67.0056
39.2991
35.6672
36.3137
36.9818
36.9488
34.7864
31.3358
29.2074
42.6804
77.8543
114.837
128.377
132.554
126.959
100.026
323.336
81.4621
41.4273
21.3509
9.60906
6.40588
7.46889
8.00398
20.1737
37.2628
37.7554
37.962
36.8125
34.4412
32.0458
30.3814
29.0023
50.1264
75.6138
98.9329
106.644
94.2671
59.7176
80.5337
19.0797
9.6172
2.13733
-0.136243
-0.798553
-1.18228
-1.92557
-0.470745
20.9386
32.664
36.8759
36.7642
35.3824
34.0636
32.4917
19.8169
21.1763
22.6466
34.5262
53.1285
59.8319
22.1699
14.465
2.29971
0.638047
-0.860466
-1.41944
-1.63656
-1.79097
-1.92643
-1.6917
1.13637
3.88455
25.0663
32.632
33.1738
30.6151
19.6169
9.72775
3.53732
-1.01203
-2.7485
-1.79901
-0.893428
2.32348
2.54285
-0.579445
-0.917726
-1.72909
-1.94419
-2.15067
-2.36983
-2.56846
-2.79167
-3.05476
-2.68207
0.585195
4.76345
5.09584
4.12355
-2.88486
-3.66656
-3.64257
-3.51294
-3.58407
-3.55301
-3.27521
-3.68879
-0.367516
-1.33659
-1.22769
-2.10477
-2.28864
-2.5833
-2.82214
-3.05132
-3.29684
-3.51759
-3.6712
-3.91904
-4.0662
-4.22067
-4.26398
-4.21341
-4.175
-4.00779
-3.83931
-3.81396
-3.84966
-3.71213
-3.48283
1.61321
-2.33509
-1.62427
-2.50449
-2.58431
-2.95948
-3.21153
-3.44525
-3.65079
-3.81458
-3.96793
-4.14169
-4.29139
-4.43017
-4.56805
-4.64806
-4.67774
-4.58101
-4.36099
-4.17915
-4.05656
-3.89924
-3.74326
3.37729
-3.46116
-1.98268
-2.87673
-2.9054
-3.31695
-3.58326
-3.82457
-4.0071
-4.13991
-4.2568
-4.39783
-4.58089
-4.81073
-5.05142
-5.24366
-5.31916
-5.20061
-4.90985
-4.60964
-4.31918
-3.95643
-3.66964
5.84025
-3.12113
-2.46058
-3.23323
-3.31388
-3.7618
-4.05635
-4.27614
-4.39555
-4.45974
-4.51609
-4.60654
-4.76155
-4.98542
-5.2325
-5.40858
-5.47126
-5.36516
-5.10676
-4.77429
-4.40266
-4.00401
-3.58408
-2.51691
-3.59155
-2.95766
-3.61832
-3.88995
-4.46495
-4.81183
-4.95618
-4.92348
-4.8285
-4.75754
-4.75137
-4.82766
-4.97637
-5.15573
-5.29402
-5.32811
-5.22562
-5.00536
-4.68146
-4.32547
-3.97921
-3.57807
-2.27998
-3.51224
-3.46321
-4.23387
-4.83444
-5.66323
-6.1025
-6.10245
-5.77734
-5.40272
-5.09238
-4.914
-4.87141
-4.90838
-4.98567
-5.06006
-5.07588
-4.99043
-4.80515
-4.54699
-4.27685
-3.98668
-3.67476
-2.3654
-3.40638
-4.05308
-5.11919
-6.26546
-7.53751
-8.14102
-7.92807
-7.1612
-6.24725
-5.54076
-5.13231
-4.94766
-4.88329
-4.87856
-4.88413
-4.85935
-4.77578
-4.62787
-4.42892
-4.20955
-4.00253
-3.79667
-2.39739
-3.11804
-4.47033
-6.05005
-7.93014
-9.76237
-10.6226
-10.1627
-8.68859
-7.11429
-5.96536
-5.33462
-5.01564
-4.87147
-4.80438
-4.75971
-4.70461
-4.61859
-4.49445
-4.33815
-4.16467
-3.99608
-3.84505
-2.67533
-3.09468
-4.63067
-6.69708
-9.00702
-11.1846
-12.2424
-11.5963
-9.63426
-7.56101
-6.14573
-5.38103
-5.00333
-4.82021
-4.72187
-4.65303
-4.5846
-4.50038
-4.39342
-4.26567
-4.12638
-3.9864
-3.84884
-3.28055
-3.50119
-4.61186
-6.58041
-8.79082
-10.7777
-11.7548
-11.0614
-9.21723
-7.23703
-5.90194
-5.21001
-4.87655
-4.70988
-4.61461
-4.54525
-4.47882
-4.40292
-4.31206
-4.20624
-4.08955
-3.96769
-3.84545
-3.99633
-4.12844
-4.87581
-6.07554
-7.40163
-8.58891
-9.13719
-8.61447
-7.39052
-6.12824
-5.28937
-4.85673
-4.65211
-4.54897
-4.48553
-4.43415
-4.38123
-4.31927
-4.24489
-4.15782
-4.06023
-3.95509
-3.84494
-4.57934
-4.85772
-5.42189
-5.88625
-6.07443
-6.13499
-6.101
-5.83531
-5.35955
-4.9026
-4.60428
-4.45816
-4.39793
-4.37163
-4.35157
-4.32716
-4.29379
-4.24881
-4.19123
-4.12145
-4.0411
-3.95237
-3.85748
-4.86973
-5.28402
-5.69295
-5.81938
-5.37515
-4.67107
-4.21005
-4.04329
-4.01896
-4.04902
-4.09397
-4.13792
-4.18111
-4.21503
-4.23309
-4.23493
-4.22157
-4.19369
-4.15215
-4.09816
-4.03346
-3.96012
-3.88037
-4.86128
-5.0999
-5.43413
-5.43044
-4.8654
-4.06279
-3.51927
-3.35961
-3.4548
-3.63974
-3.80645
-3.93426
-4.03123
-4.10039
-4.14406
-4.16598
-4.16933
-4.15637
-4.12899
-4.08896
-4.0382
-3.9788
-3.91296
-4.68769
-4.80827
-4.93934
-4.84059
-4.39781
-3.80649
-3.37995
-3.25603
-3.35316
-3.52669
-3.6957
-3.83832
-3.95066
-4.03366
-4.09016
-4.12446
-4.13976
-4.13838
-4.12257
-4.09434
-4.05567
-4.00853
-3.95498
-4.53536
-4.55911
-4.54898
-4.40119
-4.09302
-3.70493
-3.44774
-3.37299
-3.43615
-3.56088
-3.69838
-3.82438
-3.9296
-4.0118
-4.07179
-4.11063
-4.13333
-4.13996
-4.13292
-4.11419
-4.08558
-4.04889
-4.00596
-4.44175
-4.42983
-4.37126
-4.226
-4.00272
-3.76507
-3.60421
-3.54877
-3.58062
-3.66304
-3.76435
-3.86467
-3.9538
-4.02736
-4.08419
-4.12502
-4.14918
-4.16029
-4.15937
-4.14786
-4.1273
-4.09924
-4.06524
-4.40204
-4.38211
-4.32024
-4.20342
-4.04099
-3.88613
-3.77611
-3.72982
-3.74162
-3.79261
-3.86319
-3.93869
-4.00989
-4.07169
-4.12172
-4.15923
-4.18408
-4.19753
-4.20061
-4.19437
-4.18005
-4.15892
-4.13227
-4.39949
-4.37899
-4.32753
-4.23453
-4.12355
-4.01729
-3.93871
-3.90003
-3.90038
-3.93028
-3.97784
-4.03275
-4.08752
-4.13734
-4.17941
-4.21237
-4.23573
-4.24968
-4.2551
-4.25251
-4.24288
-4.22718
-4.20648
-4.42399
-4.40507
-4.36379
-4.29722
-4.21912
-4.14492
-4.08796
-4.05638
-4.05122
-4.06786
-4.09918
-4.13821
-4.17929
-4.21831
-4.25259
-4.28052
-4.30131
-4.3148
-4.32115
-4.32092
-4.31468
-4.30317
-4.28721
-4.47022
-4.45434
-4.42291
-4.37533
-4.32049
-4.26801
-4.22629
-4.20103
-4.19378
-4.20236
-4.2226
-4.24991
-4.28017
-4.31013
-4.33739
-4.3604
-4.37822
-4.39044
-4.39697
-4.39816
-4.39434
-4.38601
-4.37378
-4.53373
-4.52084
-4.49743
-4.46362
-4.425
-4.38752
-4.35679
-4.33689
-4.32932
-4.33316
-4.34601
-4.36489
-4.38689
-4.40952
-4.43082
-4.44936
-4.46421
-4.47486
-4.48106
-4.48297
-4.48079
-4.47482
-4.46553
-4.61052
-4.60015
-4.58298
-4.55902
-4.53166
-4.5047
-4.482
-4.46648
-4.45944
-4.4606
-4.46859
-4.48151
-4.49734
-4.51423
-4.53062
-4.54529
-4.5574
-4.5664
-4.57201
-4.57419
-4.57307
-4.56883
-4.56179
-4.69738
-4.68913
-4.67666
-4.65967
-4.64017
-4.62065
-4.60382
-4.59181
-4.58565
-4.58536
-4.59019
-4.59893
-4.61022
-4.62269
-4.63513
-4.64657
-4.65627
-4.66369
-4.66856
-4.6707
-4.67026
-4.66729
-4.66198
-4.79188
-4.78539
-4.77639
-4.76431
-4.75033
-4.73611
-4.72361
-4.71434
-4.70914
-4.70812
-4.71091
-4.71676
-4.72472
-4.73383
-4.74317
-4.75196
-4.75959
-4.76559
-4.76967
-4.77169
-4.7716
-4.76951
-4.76552
-4.89216
-4.88713
-4.88065
-4.87205
-4.86197
-4.85156
-4.84224
-4.83511
-4.8308
-4.82948
-4.83097
-4.8348
-4.84035
-4.84693
-4.85385
-4.86051
-4.86641
-4.87115
-4.87448
-4.87624
-4.87635
-4.87488
-4.87189
-4.99685
-4.99298
-4.98833
-4.98221
-4.9749
-4.96726
-4.9603
-4.95483
-4.95131
-4.94992
-4.95058
-4.95302
-4.95683
-4.9615
-4.96655
-4.97151
-4.97599
-4.97965
-4.98229
-4.98374
-4.98394
-4.98289
-4.98067
-5.10486
-5.1019
-5.09859
-5.09425
-5.08894
-5.08332
-5.07814
-5.07395
-5.07111
-5.06978
-5.06994
-5.07143
-5.07397
-5.07722
-5.08083
-5.08445
-5.08777
-5.09053
-5.09254
-5.09369
-5.0939
-5.09316
-5.09153
-5.21538
-5.21311
-5.21079
-5.20775
-5.20392
-5.19982
-5.19599
-5.19281
-5.19056
-5.18936
-5.18923
-5.19007
-5.1917
-5.1939
-5.1964
-5.19896
-5.20134
-5.20335
-5.20484
-5.2057
-5.20588
-5.20538
-5.20423
-5.32775
-5.326
-5.32444
-5.32237
-5.31966
-5.31673
-5.31396
-5.31161
-5.30988
-5.30886
-5.30858
-5.30899
-5.30998
-5.3114
-5.31306
-5.3148
-5.31643
-5.31783
-5.31888
-5.3195
-5.31965
-5.31932
-5.31859
-5.4415
-5.44015
-5.43919
-5.43787
-5.43604
-5.43406
-5.43216
-5.43052
-5.42927
-5.42847
-5.42816
-5.42831
-5.42885
-5.42968
-5.43071
-5.4318
-5.43285
-5.43376
-5.43445
-5.43487
-5.43499
-5.43483
-5.4344
-5.55604
-5.55504
-5.55462
-5.55391
-5.55284
-5.55168
-5.55055
-5.54956
-5.54879
-5.54827
-5.54802
-5.54803
-5.54828
-5.54871
-5.54925
-5.54984
-5.55042
-5.55093
-5.55133
-5.55158
-5.55168
-5.55163
-5.5514
-5.67176
-5.67119
-5.671
-5.67076
-5.67039
-5.66999
-5.66957
-5.6692
-5.66888
-5.66864
-5.66849
-5.66842
-5.66844
-5.66852
-5.66864
-5.66879
-5.66895
-5.66909
-5.66919
-5.66925
-5.66923
-5.66913
-5.66901
345.922
335.381
328.241
306.169
241.877
229.779
221.042
216.92
142.544
112.588
90.1785
90.1245
82.9853
47.2932
22.0384
16.7999
56.2393
30.7679
20.3526
28.4021
26.5104
14.8843
16.4282
32.1247
1.54916
-1.06548
5.85416
25.2635
-2.91258
-0.133669
8.97017
30.227
3.96894
13.2844
23.311
43.9123
-4.07993
-4.84611
-0.329468
13.5795
-3.74858
-3.77208
-3.96732
-4.01668
-3.52124
-3.43641
-3.37787
-3.36378
-3.28788
-3.13661
-3.01418
-2.9147
-3.33557
-3.18569
-3.03319
-2.91689
-3.4343
-3.28777
-3.14596
-3.00766
-3.61296
-3.49687
-3.3813
-3.23994
-3.72223
-3.63393
-3.5453
-3.44158
-3.74423
-3.67919
-3.61674
-3.54197
-3.75363
-3.69205
-3.62767
-3.56001
-3.76056
-3.70542
-3.64918
-3.59197
-3.78399
-3.73592
-3.68713
-3.63766
-3.81813
-3.77739
-3.73623
-3.69473
-3.86089
-3.82669
-3.79217
-3.7574
-3.91198
-3.88362
-3.85491
-3.82592
-3.97084
-3.94753
-3.92376
-3.8996
-4.0368
-4.01775
-3.99817
-3.97812
-4.1094
-4.09394
-4.07793
-4.06141
-4.18821
-4.17575
-4.16274
-4.14922
-4.27271
-4.26272
-4.25221
-4.24121
-4.36234
-4.35438
-4.34593
-4.33703
-4.45654
-4.45023
-4.44347
-4.43631
-4.55477
-4.5498
-4.54443
-4.53869
-4.65653
-4.65263
-4.64838
-4.6438
-4.76131
-4.75826
-4.75491
-4.75129
-4.86865
-4.86629
-4.86367
-4.86082
-4.9782
-4.97639
-4.97438
-4.97218
-5.0897
-5.08835
-5.08685
-5.08521
-5.20295
-5.202
-5.20095
-5.19981
-5.31777
-5.31718
-5.31653
-5.31582
-5.43397
-5.43368
-5.43337
-5.43304
-5.55123
-5.55116
-5.55112
-5.55113
-5.66916
-5.66935
-5.66962
-5.66996
310.177
320.117
310.387
242.323
182.294
182.431
189.364
184.847
167.894
147.909
145.64
140.832
99.5756
103.224
71.7108
49.02
40.3457
43.1111
97.7765
220.183
228.53
232.198
170.5
156.06
164.379
164.393
158.504
152.726
142.438
80.9118
3.11096
3.9418
17.1212
12.9791
12.6317
12.8648
14.1681
24.0834
119.084
137.268
154.237
133.85
139.527
148.969
146.914
140.16
114.471
87.6154
53.0458
-6.84844
-3.81935
7.78367
12.2115
12.3279
12.4343
11.7746
10.5451
40.2264
79.1598
106.539
106.32
120.946
129.72
131.777
122.619
87.747
60.1809
53.4037
9.16061
5.32084
9.54126
11.8644
11.7022
11.3009
10.5633
10.1565
50.893
70.4776
76.2329
83.8463
93.4332
96.8099
95.6084
71.994
53.5768
47.8063
53.762
30.1238
11.9958
8.55315
6.73474
5.84825
5.57646
7.26569
8.99565
61.9837
67.2201
63.3556
63.083
63.3248
60.7015
56.1334
41.0214
32.9303
31.2095
36.4219
21.2253
11.8791
8.11483
4.76969
1.17037
1.26327
3.41395
5.34556
57.4739
58.1054
52.6962
46.9241
43.2595
46.5426
45.4468
41.6529
28.7353
27.2094
28.9777
18.1152
8.28727
5.77727
3.54818
1.40452
1.77159
3.25733
4.2212
65.329
57.2656
44.2042
39.1639
35.7719
37.1033
38.5779
31.8062
18.792
6.1149
2.95219
3.81813
2.60758
4.01794
3.6111
2.48436
2.60861
3.67578
4.29353
80.682
79.5497
47.8072
39.7218
36.5031
36.6707
31.5203
19.6996
13.9638
21.1762
13.9181
5.87348
3.64349
4.02917
3.64396
2.93718
3.09608
3.89663
4.37332
40.6801
70.2677
59.7064
41.5892
29.1112
24.9532
26.5187
14.7082
11.7004
-0.338533
-1.21874
-1.14968
-0.317536
0.75565
2.36008
2.27518
2.80496
3.51939
3.91897
2.17795
24.7239
40.6706
33.915
29.944
29.1828
21.8374
10.2787
-1.29202
-1.38437
-1.42345
-1.47857
-1.6665
-1.42485
-4.16145
-1.53301
1.31145
2.40404
2.68327
-3.43795
-2.60961
6.27373
10.6927
9.15923
0.250995
-1.51152
-1.44149
-1.44657
-1.58814
-1.56955
-1.74275
-2.16646
-3.14482
-5.0754
-4.44159
-0.642742
1.1208
1.47627
-2.77016
-2.54328
-2.42473
-2.23735
-2.05095
-2.07477
-1.85477
-1.76546
-1.69466
-1.72752
-1.72747
-1.83236
-2.18029
-2.7918
-3.36673
-3.22248
-1.42415
0.0230064
0.355615
-2.7718
-2.64805
-2.50816
-2.35454
-2.25649
-2.15567
-2.01524
-1.93811
-1.88054
-1.85807
-1.83357
-1.85563
-2.00945
-2.26387
-2.34191
-2.10709
-1.42621
-0.729953
-0.396429
-2.83614
-2.75754
-2.64742
-2.5133
-2.40669
-2.29789
-2.18125
-2.10186
-2.03575
-1.9847
-1.93804
-1.90829
-1.90824
-1.88201
-1.82841
-1.77935
-1.52431
-1.18234
-0.914781
-2.99653
-2.89639
-2.80027
-2.6551
-2.54219
-2.43562
-2.33428
-2.25201
-2.18336
-2.12207
-2.06309
-2.00753
-1.94687
-1.84707
-1.75636
-1.76652
-1.69625
-1.47765
-1.336
-3.21417
-3.03678
-2.93866
-2.79686
-2.67496
-2.57242
-2.48026
-2.40004
-2.32979
-2.26491
-2.20061
-2.13321
-2.05581
-1.9666
-1.89988
-1.86205
-1.85588
-1.71892
-1.6913
-3.37329
-3.17238
-3.04915
-2.91854
-2.7991
-2.70204
-2.61819
-2.5433
-2.4755
-2.41149
-2.34673
-2.27697
-2.19958
-2.12085
-2.05985
-2.02494
-2.02371
-1.94069
-1.93112
-3.44104
-3.27783
-3.14351
-3.02436
-2.91872
-2.83081
-2.75457
-2.68534
-2.62121
-2.5605
-2.49885
-2.4338
-2.36537
-2.30058
-2.2459
-2.21485
-2.19537
-2.15198
-2.13049
-3.49541
-3.35961
-3.23623
-3.13055
-3.03903
-2.96006
-2.89002
-2.82594
-2.7664
-2.71004
-2.65451
-2.59854
-2.54269
-2.49032
-2.44431
-2.41149
-2.38262
-2.35274
-2.33307
-3.55502
-3.4413
-3.33497
-3.24188
-3.1606
-3.08851
-3.02349
-2.9641
-2.90938
-2.85857
-2.81099
-2.76691
-2.72573
-2.68582
-2.64663
-2.61016
-2.57316
-2.54784
-2.52864
-3.62497
-3.52875
-3.4375
-3.35502
-3.28135
-3.21485
-3.15435
-3.09937
-3.04928
-3.00424
-2.96532
-2.93393
-2.90764
-2.87998
-2.84632
-2.80505
-2.75818
-2.73256
-2.71556
-3.6989
-3.61761
-3.53931
-3.46645
-3.3998
-3.33876
-3.28285
-3.23211
-3.1862
-3.146
-3.11444
-3.09335
-3.07929
-3.06298
-3.03406
-2.98722
-2.93728
-2.90364
-2.89288
-3.77686
-3.70782
-3.64042
-3.57641
-3.51666
-3.46118
-3.40997
-3.36334
-3.32078
-3.28451
-3.25688
-3.24043
-3.23268
-3.22361
-3.19595
-3.1469
-3.10174
-3.06758
-3.06095
-3.85851
-3.80001
-3.74207
-3.68613
-3.63308
-3.58324
-3.53685
-3.49429
-3.45534
-3.42113
-3.39365
-3.37549
-3.36605
-3.35596
-3.32873
-3.28714
-3.25099
-3.22833
-3.22211
-3.94384
-3.89443
-3.84488
-3.79641
-3.74985
-3.70566
-3.66428
-3.62617
-3.59096
-3.55809
-3.52876
-3.50546
-3.48851
-3.47179
-3.44796
-3.42147
-3.39893
-3.38533
-3.37942
-4.033
-3.9915
-3.94937
-3.9077
-3.86727
-3.82862
-3.79229
-3.75881
-3.72751
-3.69642
-3.66607
-3.63904
-3.61594
-3.59484
-3.5773
-3.56469
-3.54998
-3.53872
-3.53171
-4.12581
-4.09115
-4.05558
-4.02004
-3.98528
-3.95185
-3.9203
-3.89109
-3.86341
-3.83491
-3.80574
-3.77871
-3.75469
-3.73441
-3.72075
-3.71433
-3.70173
-3.69182
-3.67787
-4.22203
-4.19326
-4.16341
-4.1333
-4.10363
-4.07489
-4.04752
-4.02187
-3.99719
-3.9717
-3.94545
-3.92113
-3.89967
-3.88262
-3.8699
-3.86727
-3.85271
-3.85553
-3.82206
-4.3214
-4.29765
-4.27273
-4.24737
-4.22213
-4.19744
-4.17359
-4.15082
-4.12866
-4.10618
-4.08367
-4.06305
-4.04516
-4.03139
-4.0206
-4.01862
-4.00588
-4.0316
-3.98848
-4.42365
-4.40414
-4.38344
-4.36214
-4.34072
-4.31949
-4.29867
-4.27842
-4.25861
-4.23904
-4.22019
-4.20329
-4.18886
-4.1778
-4.1693
-4.16734
-4.16276
-4.18255
-4.18258
-4.52848
-4.51253
-4.49542
-4.4776
-4.45946
-4.44126
-4.42318
-4.40539
-4.38802
-4.37125
-4.35558
-4.34183
-4.33022
-4.32126
-4.31447
-4.31139
-4.31019
-4.31786
-4.33501
-4.63561
-4.62264
-4.60855
-4.59372
-4.57846
-4.56301
-4.54754
-4.53228
-4.51747
-4.50339
-4.49043
-4.47917
-4.46965
-4.46225
-4.45649
-4.45264
-4.45118
-4.45072
-4.45445
-4.74475
-4.73427
-4.72277
-4.71054
-4.69788
-4.68498
-4.67205
-4.65934
-4.64709
-4.63551
-4.6249
-4.61567
-4.60779
-4.6016
-4.59663
-4.5928
-4.59101
-4.58864
-4.58875
-4.85565
-4.84729
-4.83804
-4.82815
-4.81789
-4.80742
-4.79695
-4.78669
-4.77681
-4.76748
-4.75891
-4.75142
-4.74498
-4.73985
-4.7356
-4.73226
-4.73045
-4.72825
-4.72795
-4.96817
-4.96165
-4.95442
-4.94669
-4.93867
-4.93049
-4.92231
-4.91429
-4.90653
-4.89918
-4.89245
-4.88653
-4.88142
-4.87729
-4.87379
-4.87109
-4.86939
-4.86767
-4.86737
-5.08222
-5.07736
-5.07197
-5.06624
-5.06029
-5.05419
-5.04808
-5.04206
-5.03622
-5.03068
-5.02563
-5.02118
-5.01733
-5.01416
-5.01145
-5.00941
-5.00794
-5.00672
-5.00642
-5.19772
-5.19435
-5.19065
-5.18673
-5.18264
-5.17843
-5.17419
-5.16999
-5.16593
-5.1621
-5.15863
-5.15555
-5.15288
-5.15065
-5.14873
-5.14732
-5.14619
-5.14542
-5.14513
-5.31455
-5.31252
-5.31033
-5.30803
-5.30562
-5.30312
-5.3006
-5.29811
-5.29572
-5.2935
-5.29148
-5.28968
-5.28811
-5.28679
-5.28565
-5.28482
-5.28412
-5.28372
-5.28349
-5.43247
-5.43163
-5.43082
-5.42999
-5.42913
-5.42823
-5.42734
-5.42647
-5.42566
-5.42491
-5.42423
-5.42363
-5.42311
-5.42266
-5.42228
-5.42202
-5.42176
-5.42167
-5.42152
-5.55119
-5.55148
-5.55197
-5.55255
-5.55318
-5.55384
-5.55451
-5.55519
-5.55587
-5.55652
-5.55713
-5.55768
-5.55818
-5.5586
-5.55897
-5.55928
-5.55947
-5.55966
-5.55958
-5.67067
-5.67205
-5.67377
-5.67572
-5.67781
-5.67999
-5.68222
-5.68444
-5.68662
-5.68869
-5.69062
-5.69235
-5.69388
-5.6952
-5.69632
-5.69726
-5.69794
-5.69845
-5.6983
)
;

boundaryField
{
    leftWall
    {
        type            calculated;
        value           nonuniform List<scalar> 
50
(
1039.61
983.993
928.61
874.022
820.755
769.844
721.739
677.077
610.621
514.538
444.949
580.995
677.979
323.336
80.5337
14.465
2.54285
-0.367516
1.61321
3.37729
5.84025
-2.51691
-2.27998
-2.3654
-2.39739
-2.67533
-3.28055
-3.99633
-4.57934
-4.86973
-4.86128
-4.68769
-4.53536
-4.44175
-4.40204
-4.39949
-4.42399
-4.47022
-4.53373
-4.61052
-4.69738
-4.79188
-4.89216
-4.99685
-5.10486
-5.21538
-5.32775
-5.4415
-5.55604
-5.67176
)
;
    }
    rightWall
    {
        type            calculated;
        value           nonuniform List<scalar> 
50
(
608.902
544.578
460.392
377.191
302.376
254.9
229.599
190.082
97.7765
24.0834
10.5451
10.1565
8.99565
5.34556
4.2212
4.29353
4.37332
3.91897
2.68327
1.47627
0.355615
-0.396429
-0.914781
-1.336
-1.6913
-1.93112
-2.13049
-2.33307
-2.52864
-2.71556
-2.89288
-3.06095
-3.22211
-3.37942
-3.53171
-3.67787
-3.82206
-3.98848
-4.18258
-4.33501
-4.45445
-4.58875
-4.72795
-4.86737
-5.00642
-5.14513
-5.28349
-5.42152
-5.55958
-5.6983
)
;
    }
    lowerWall
    {
        type            calculated;
        value           nonuniform List<scalar> 
62
(
1069.03
1057.64
1039.02
1014.02
986.451
956.315
921.567
881.844
841.211
804.548
775.497
755.58
744.712
741.883
744.112
747.219
750.86
763.436
779.222
800.432
821.681
838.034
844.173
814.745
755.516
696.995
639.717
584.013
529.899
477.079
426.703
408.126
397.882
390.839
368.766
725.507
671.072
612.77
551.383
492.674
447.953
407.091
368.731
754.469
708.805
698.93
679.742
588.116
509.537
476.861
430.582
307.873
268.829
279.518
297.575
343.829
422.609
523.147
560.874
529.184
555.271
626.894
)
;
    }
    atmosphere
    {
        type            calculated;
        value           nonuniform List<scalar> 
46
(
-5.72904
-5.72904
-5.72904
-5.72904
-5.72904
-5.72904
-5.72904
-5.72904
-5.72904
-5.72904
-5.72904
-5.72904
-5.72904
-5.72904
-5.72904
-5.72904
-5.72904
-5.72904
-5.72904
-5.72904
-5.72904
-5.72904
-5.72904
-5.72911
-5.72927
-5.72953
-5.72992
-5.73084
-5.73268
-5.73498
-5.7376
-5.74039
-5.74334
-5.74636
-5.74941
-5.75239
-5.75523
-5.75787
-5.76022
-5.7623
-5.76409
-5.76563
-5.76693
-5.76788
-5.76865
-5.76826
)
;
    }
    defaultFaces
    {
        type            empty;
    }
}


// ************************************************************************* //
