/*--------------------------------*- C++ -*----------------------------------*\
| =========                 |                                                 |
| \\      /  F ield         | OpenFOAM: The Open Source CFD Toolbox           |
|  \\    /   O peration     | Version:  5.x                                   |
|   \\  /    A nd           | Web:      www.OpenFOAM.org                      |
|    \\/     M anipulation  |                                                 |
\*---------------------------------------------------------------------------*/
FoamFile
{
    version     2.0;
    format      ascii;
    class       volScalarField;
    location    "0.9";
    object      p_rgh;
}
// * * * * * * * * * * * * * * * * * * * * * * * * * * * * * * * * * * * * * //

dimensions      [1 -1 -2 0 0 0 0];

internalField   nonuniform List<scalar> 
2268
(
1069.03
1057.64
1039.02
1014.02
986.451
956.315
921.567
881.844
841.211
804.548
775.497
755.58
744.712
741.883
744.112
747.219
750.86
763.436
779.222
800.432
821.681
838.034
844.173
1072.28
1060.18
1040.07
1013.55
985.607
956.541
922.069
881.738
840.255
802.917
773.527
753.583
742.886
740.646
743.576
744.757
749.257
759.282
775.198
797.481
818.408
836.057
843.804
1075.76
1062.82
1041.21
1012.94
985.226
957.282
923.006
881.53
838.286
799.453
769.349
749.409
739.175
737.835
743.31
748.176
750.58
754.503
772.947
797.901
818.496
835.997
844.142
1080.03
1065.61
1042.6
1012.51
984.621
958.598
924.726
881.4
835.332
794.139
763.081
743.097
733.477
733.207
740.389
751.344
757.652
762.192
780.688
803.364
823.044
837.583
845.72
1085.62
1069.02
1044.68
1012.96
985.305
962.015
928.155
881.684
831.348
786.711
754.369
734.497
725.718
726.988
735.76
748.069
758.552
768.39
784.415
804.823
824.525
840.219
848.878
1093.57
1073.65
1047.82
1015.36
989.128
969.02
933.837
882.561
826.259
776.85
743.525
723.48
715.759
719.188
730.438
744.699
758.226
770.206
786.298
806.004
826.678
844.356
853.622
1104.32
1080.22
1052.03
1020.3
997.375
980.267
942.326
884.339
819.55
763.593
730.37
709.725
703.351
709.752
724.444
741.027
757.027
771.186
787.371
807.037
829.701
850.713
859.661
1118.52
1088.45
1056.51
1027.76
1011.42
996.023
953.261
886.92
810.183
744.419
713.318
697.554
688.7
698.52
717.893
737.278
756.412
772.297
788.177
807.874
833.947
860.318
868.143
754.469
708.805
698.93
679.742
588.116
509.537
476.861
430.582
307.873
268.829
279.518
297.575
343.829
422.609
523.147
560.874
529.184
555.271
626.894
759.196
699.383
681.758
657.157
565.042
500.754
468.02
411.649
282.554
245.66
250.68
265.291
316.544
415.765
525.906
560.874
507.8
544.908
632.866
759.917
678.434
664.474
634.028
536.305
489.047
472.678
389.149
275.599
241.404
247.169
254.583
316.136
419.399
524.296
548.749
492.405
537.44
607.539
757.389
666.461
653.886
633.209
511.358
488.795
469.614
299.149
249.52
228.348
233.905
244.54
280.534
390.019
510.436
543.222
479.003
553.155
583.197
756.505
663.149
651.194
624.492
515.639
509.118
404.624
295.187
219.356
192.489
203.134
214.578
225.509
323.732
488.492
566.526
530.766
547.54
499.932
698.925
652.425
724.408
648.175
559.383
471.272
269.491
261.972
208.854
176.871
186.738
212.39
221.069
255.394
478.189
586.507
595.66
553.185
384.942
755.877
706.27
763.764
692.223
563.079
322.257
240.714
251.463
259.821
174.996
181.988
210.108
219.381
343.55
528.935
603.249
622.008
573.199
324.748
810.172
796.323
796.985
728.27
479.497
217.481
232.551
272.774
287.933
192.746
174.802
202.468
300.316
552.974
587.024
610.526
604.018
506.767
472.778
1144.07
1102.16
1064.17
1043.92
1045.91
1040.17
977.552
892.725
781.843
664.805
603.647
578.542
588.74
644.123
700.122
729.603
753.361
771.737
783.97
802.538
838.587
869.942
875.96
1047.05
1071.5
1046.36
1004.88
1073.01
1097.36
1054.17
828.839
401.246
193.567
133.052
121.593
133.536
222.862
388.677
482.454
486.087
466.009
446.407
454.907
516.511
570.241
764.378
904.391
1060.1
1041.96
900.262
800.595
728.443
476.605
302.304
141.774
54.8336
38.7329
41.2814
43.6188
49.4592
57.8802
71.6275
95.92
119.7
132.265
144.254
173.449
510.827
917.493
1304.52
1095.48
669.283
394.401
388.566
440.035
443.758
255.933
65.8367
38.4607
38.0139
39.4809
40.5608
39.9484
42.3679
61.1645
91.7979
128.734
138.335
148.185
155.502
246.683
810.24
1552.85
633.937
179.154
158.282
324.439
355.056
360.034
326.16
142.96
37.7111
38.3522
39.0257
39.0767
37.2966
35.3311
84.5713
358.885
495.982
291.472
143.669
157.331
195.809
614.98
1225.07
138.461
48.3239
106.819
134.546
109.569
136.36
203.633
157.13
44.5548
40.0432
40.2481
39.1551
37.0565
35.7923
113.947
598.341
659.229
684.716
517.019
475.29
729.009
961.235
890.835
26.252
12.5944
14.2632
1.46315
0.621017
0.518805
0.560515
35.6845
138.179
153.595
67.3181
39.6367
38.406
37.6832
160.608
623.326
696.049
668.917
726.608
798.294
971.432
1207.08
250.645
6.03392
2.57196
0.759535
0.0253227
-0.213632
-0.345472
-0.390567
10.3651
111.485
141.185
163.069
154.559
87.6898
102.491
316.937
311.564
153.043
17.0235
-1.08632
0.384027
7.90899
666.187
4.07781
1.39926
0.805604
-0.156335
-0.40432
-0.614158
-0.826215
-0.958324
-1.16223
-1.51054
3.56852
111.598
199.205
200.093
179.154
6.16215
-2.04532
-2.01274
-1.87151
-1.90478
-1.80961
-1.3517
-0.89959
113.946
0.498737
0.47481
-0.439308
-0.627569
-0.92289
-1.16163
-1.3907
-1.63622
-1.85548
-2.01048
-2.25757
-2.40019
-2.55063
-2.57751
-2.50579
-2.44592
-2.24565
-2.0412
-1.9885
-2.00197
-1.81894
-1.55335
841.13
-0.50106
0.169507
-0.718259
-0.798763
-1.17404
-1.42608
-1.6598
-1.86535
-2.02915
-2.18246
-2.3558
-2.50463
-2.63853
-2.56034
-2.00863
-1.82692
-2.04803
-2.10882
-2.1714
-2.01662
-1.81433
-1.74454
949.616
-1.53737
-0.0704363
-0.965985
-0.994763
-1.40634
-1.67265
-1.91396
-2.09649
-2.2293
-2.34619
-2.48717
-2.66979
-2.89669
-2.81607
-1.45125
-1.23388
-1.09519
-0.805018
-0.503892
-0.67894
-1.37475
-1.60623
380.98
-0.526169
-0.424451
-1.1974
-1.27807
-1.72599
-2.02054
-2.24033
-2.35975
-2.42394
-2.48029
-2.57072
-2.72502
-2.94431
-3.18158
-3.34595
-2.71631
-1.76892
-0.772785
0.306397
0.786881
1.29064
-0.098258
-0.36342
-0.329347
-0.779445
-1.45731
-1.72895
-2.30395
-2.65083
-2.79518
-2.76248
-2.6675
-2.59655
-2.59037
-2.66662
-2.81524
-2.99472
-3.13261
-3.16711
-3.06462
-2.84436
-2.352
-0.294072
1.66165
2.0714
0.00590592
-0.426496
-1.17044
-1.94767
-2.54825
-3.37703
-3.81631
-3.81625
-3.49115
-3.11653
-2.80619
-2.62781
-2.58521
-2.62218
-2.69947
-2.77386
-2.78968
-2.70424
-2.49448
-2.2608
-1.99066
1.14104
2.34693
0.0458436
-0.375131
-1.62937
-2.70778
-3.85407
-5.12612
-5.72963
-5.50445
-4.74969
-3.83579
-3.12937
-2.72092
-2.53627
-2.47188
-2.46713
-2.4727
-2.44795
-2.36439
-2.21648
-2.01754
-1.79817
-1.59115
1.0678
0.139192
0.736017
-1.88181
-3.51345
-5.39353
-7.18725
-7.77553
-7.08638
-5.95288
-4.56512
-3.42794
-2.79803
-2.47905
-2.33488
-2.26777
-2.2231
-2.168
-2.082
-1.95787
-1.80156
-1.62809
-1.4595
-1.30847
-0.0135669
0.357462
-1.62913
-4.03228
-6.34421
-8.51849
-8.96102
-8.29881
-6.33964
-4.65598
-3.48052
-2.71916
-2.34154
-2.15843
-2.06009
-1.99124
-1.92281
-1.8386
-1.73165
-1.60389
-1.4646
-1.32462
-1.18707
-0.493577
-0.693238
-1.46542
-3.73194
-5.99929
-7.97697
-8.48655
-7.61182
-5.76542
-3.99455
-3.10282
-2.42263
-2.08954
-1.92291
-1.82764
-1.75828
-1.69185
-1.61595
-1.52509
-1.41928
-1.30258
-1.18072
-1.05815
-1.08416
-1.21558
-1.9143
-3.07678
-4.45537
-5.58021
-5.62044
-5.01464
-3.78598
-2.81857
-2.36657
-1.94386
-1.73987
-1.63679
-1.57337
-1.52199
-1.46906
-1.40711
-1.33273
-1.24566
-1.14807
-1.04293
-0.930839
-1.54199
-1.82037
-2.38309
-2.80772
-2.83819
-2.47187
-2.36328
-2.08733
-1.60496
-1.64329
-1.56278
-1.42025
-1.36051
-1.33426
-1.31421
-1.2898
-1.25644
-1.21146
-1.15387
-1.0841
-1.00374
-0.915011
-0.820125
-1.70717
-2.12147
-2.53036
-2.65492
-1.54443
-0.785494
-0.312845
-0.149389
-0.373439
-0.856718
-0.929933
-0.975164
-1.01853
-1.05248
-1.07054
-1.07238
-1.05902
-1.03114
-0.989594
-0.935606
-0.870903
-0.797566
-0.717815
-1.57353
-1.81215
-2.14636
-2.14225
-1.30361
-0.0635828
0.520121
0.428348
-0.111801
-0.349727
-0.518375
-0.646475
-0.743478
-0.812639
-0.856315
-0.878236
-0.881585
-0.868626
-0.841243
-0.801216
-0.750454
-0.691051
-0.625211
-1.27475
-1.39533
-1.52638
-1.42618
-0.978612
-0.247468
0.201815
0.197641
0.0622823
-0.113282
-0.282692
-0.425371
-0.537716
-0.620722
-0.677221
-0.711523
-0.726819
-0.725434
-0.709625
-0.681404
-0.642728
-0.595586
-0.542042
-0.997228
-1.02098
-1.01083
-0.862679
-0.554349
-0.163904
0.0929157
0.166161
0.102274
-0.0226843
-0.16023
-0.286247
-0.39146
-0.473669
-0.533653
-0.572493
-0.595194
-0.601821
-0.594786
-0.576055
-0.547445
-0.510751
-0.467824
-0.778416
-0.766501
-0.707934
-0.562661
-0.339313
-0.1014
0.059418
0.114678
0.0827384
0.000300387
-0.10102
-0.201337
-0.290469
-0.364028
-0.420858
-0.46169
-0.485845
-0.496956
-0.496039
-0.48453
-0.463971
-0.435909
-0.401913
-0.61352
-0.593586
-0.53171
-0.414896
-0.252458
-0.09757
0.0124409
0.0587126
0.0469068
-0.00408412
-0.0746617
-0.150166
-0.221367
-0.283166
-0.333193
-0.370707
-0.395551
-0.409002
-0.412083
-0.405842
-0.391525
-0.370398
-0.343748
-0.485769
-0.465267
-0.413813
-0.320806
-0.209826
-0.103564
-0.0249913
0.0136944
0.013335
-0.0165616
-0.0641238
-0.11903
-0.1738
-0.223617
-0.265694
-0.298651
-0.322007
-0.335962
-0.341376
-0.338795
-0.329158
-0.313466
-0.292758
-0.385072
-0.366159
-0.324878
-0.258303
-0.180209
-0.106002
-0.0490454
-0.0174626
-0.0123093
-0.0289451
-0.060268
-0.0992973
-0.140373
-0.179401
-0.213677
-0.241603
-0.262392
-0.275882
-0.282234
-0.282008
-0.275768
-0.264259
-0.248293
-0.30611
-0.290229
-0.258799
-0.211223
-0.156383
-0.103901
-0.0621849
-0.036925
-0.0296715
-0.0382534
-0.0584955
-0.0858029
-0.116066
-0.146018
-0.173284
-0.196288
-0.214108
-0.22633
-0.232866
-0.234055
-0.230227
-0.221898
-0.209674
-0.244425
-0.23154
-0.208128
-0.17432
-0.135693
-0.0982143
-0.06749
-0.0475864
-0.0400129
-0.0438561
-0.0567033
-0.0755822
-0.0975886
-0.120221
-0.141516
-0.160054
-0.174908
-0.185553
-0.191761
-0.193669
-0.191484
-0.185521
-0.176222
-0.196025
-0.185656
-0.168487
-0.144527
-0.117162
-0.0902034
-0.0675003
-0.0519827
-0.0449464
-0.0461044
-0.0540914
-0.0670098
-0.082845
-0.0997353
-0.11612
-0.130795
-0.142904
-0.151904
-0.157516
-0.159691
-0.158568
-0.154331
-0.147291
-0.157692
-0.149442
-0.13697
-0.119978
-0.100475
-0.0809566
-0.0641311
-0.0521162
-0.0459584
-0.0456682
-0.0504953
-0.0592414
-0.0705274
-0.0829959
-0.0954425
-0.106883
-0.116573
-0.124003
-0.128867
-0.131013
-0.130571
-0.127594
-0.122288
-0.126991
-0.120507
-0.111499
-0.0994274
-0.0854431
-0.0712269
-0.0587215
-0.0494563
-0.0442487
-0.0432367
-0.0460266
-0.0518696
-0.0598321
-0.0689392
-0.0782806
-0.0870745
-0.094699
-0.100701
-0.104786
-0.106808
-0.106715
-0.104622
-0.100634
-0.102083
-0.0970486
-0.0905648
-0.081973
-0.0718885
-0.0614807
-0.0521622
-0.0450337
-0.0407209
-0.0394037
-0.0408912
-0.0447222
-0.0502705
-0.0568442
-0.0637658
-0.0704275
-0.0763247
-0.0810708
-0.0843995
-0.0861562
-0.0862641
-0.084798
-0.0818105
-0.0815732
-0.0777026
-0.073051
-0.0669331
-0.0596277
-0.0519802
-0.0450261
-0.0395519
-0.0360304
-0.0346413
-0.0353069
-0.0377485
-0.0415497
-0.046224
-0.0512739
-0.0562358
-0.0607101
-0.0643788
-0.067012
-0.0684646
-0.0686625
-0.0676188
-0.065391
-0.0643925
-0.0614311
-0.0581168
-0.0537757
-0.0484745
-0.0428539
-0.0376717
-0.0334835
-0.0306434
-0.029312
-0.0294721
-0.0309595
-0.0334999
-0.0367547
-0.0403639
-0.0439805
-0.0472961
-0.0500567
-0.052072
-0.0532161
-0.0534266
-0.0526898
-0.0510573
-0.0497187
-0.0474477
-0.0451261
-0.0420822
-0.0382548
-0.0341528
-0.0303218
-0.0271479
-0.0248948
-0.0236953
-0.0235621
-0.0244019
-0.0260364
-0.0282336
-0.0307384
-0.0332975
-0.0356794
-0.0376888
-0.0391748
-0.0400353
-0.0402181
-0.0397139
-0.0385703
-0.0368918
-0.0351363
-0.0335798
-0.031509
-0.0287987
-0.0258699
-0.0230995
-0.020751
-0.0190165
-0.0179983
-0.0177211
-0.0181344
-0.0191251
-0.0205395
-0.0222027
-0.0239368
-0.0255753
-0.0269747
-0.0280223
-0.0286409
-0.0287899
-0.0284576
-0.027728
-0.025445
-0.0240923
-0.0231338
-0.0218115
-0.0199878
-0.0180093
-0.0161106
-0.0144677
-0.0132121
-0.0124155
-0.0121035
-0.0122515
-0.0127921
-0.01363
-0.0146532
-0.015745
-0.0167941
-0.0177026
-0.0183933
-0.0188135
-0.0189389
-0.018774
-0.0183438
-0.0147895
-0.013796
-0.0133701
-0.0126652
-0.0115912
-0.0104314
-0.00930426
-0.00831552
-0.00753932
-0.00701735
-0.00676987
-0.0067863
-0.00703259
-0.00745787
-0.0080003
-0.00859393
-0.00917457
-0.00968514
-0.0100802
-0.0103301
-0.0104269
-0.0103832
-0.0101521
-0.00532072
-0.00475076
-0.00455542
-0.00431356
-0.00394787
-0.00354948
-0.00313154
-0.0027534
-0.00243696
-0.00219713
-0.00204515
-0.00198022
-0.00199447
-0.00207359
-0.00219879
-0.00234937
-0.00250442
-0.00264414
-0.00275007
-0.00280441
-0.0027876
-0.00268483
-0.0025701
876.036
868.024
861.708
839.636
850.897
862.227
872.728
875.475
890.647
862.209
802.844
774.829
947.609
914.881
878.426
774.32
1038.14
1013
999.497
1002.35
1119.26
1112.55
1110.05
1119.05
1209.35
1210.64
1212.1
1224.1
1274.64
1323.67
1324.64
1336.33
415.149
1179.58
1366.8
1446.7
-1.97103
-1.73668
191.65
887.449
-1.82108
-1.86775
-2.10121
-1.86843
-1.47917
-1.43289
-1.42658
-1.45904
-0.988592
-1.05737
-0.968096
-0.877327
2.35637
-0.0735509
-0.286808
-0.700321
2.58817
2.73392
2.87573
1.92656
2.5593
2.85541
2.91831
3.007
-1.10424
0.236569
2.02943
3.12101
-1.08244
-1.01735
-0.954792
-0.193014
-0.964816
-0.90146
-0.839077
-0.772939
-0.843071
-0.787879
-0.731643
-0.677132
-0.746631
-0.698565
-0.649775
-0.600307
-0.655575
-0.614839
-0.573674
-0.532175
-0.573143
-0.538946
-0.504421
-0.469657
-0.499037
-0.470682
-0.441972
-0.412974
-0.432708
-0.409395
-0.385626
-0.361464
-0.373467
-0.354416
-0.334836
-0.314789
-0.320874
-0.305417
-0.289402
-0.272888
-0.274492
-0.262033
-0.24902
-0.235504
-0.233793
-0.223807
-0.213295
-0.202297
-0.19823
-0.190269
-0.18182
-0.17292
-0.167238
-0.160924
-0.154171
-0.147005
-0.140277
-0.1353
-0.129931
-0.124192
-0.116838
-0.112933
-0.108685
-0.104111
-0.0964216
-0.0933723
-0.090027
-0.0863995
-0.0785714
-0.0762061
-0.073592
-0.0707392
-0.0629253
-0.0611144
-0.0591043
-0.0569004
-0.0492256
-0.0478778
-0.0463808
-0.0447382
-0.0372811
-0.0363347
-0.0352869
-0.0341409
-0.0269122
-0.0263185
-0.0256669
-0.024962
-0.01792
-0.0176244
-0.0173119
-0.0169865
-0.0099863
-0.00991246
-0.00987656
-0.00987833
-0.00271773
-0.00290577
-0.00317397
-0.00352139
843.642
853.581
835.842
727.446
339.568
210.713
217.199
316.812
312.916
212.379
154.755
317.836
503.103
521.36
453.719
356.744
264.828
202.228
568.571
878.836
887.187
889.792
618.392
199.335
199.253
206.86
335.955
335.335
244.843
100.146
151.813
282.061
167.476
23.1823
13.4058
13.6385
14.9545
166.362
838.913
915.263
878.119
362.125
182.419
190.526
242.547
322.024
332.981
272.134
84.1418
22.917
17.2086
8.83941
13.1356
13.2488
13.3058
12.5722
11.3289
772.698
855.91
638.677
166.637
171.704
284.711
335.04
362.318
341.156
313.59
242.232
55.096
34.448
34.9628
26.3638
12.7738
14.4473
13.8341
11.0656
903.673
472.167
167.581
127.491
264.103
374.196
376.473
355.244
337.814
301.235
307.588
270.466
55.5679
10.8789
12.3512
10.9162
11.7545
13.7073
15.4172
1013.59
331.22
104.083
101.765
291.06
359.226
180.822
60.5978
43.8704
41.8624
47.075
33.5501
17.5679
10.2424
6.83898
7.5463
6.08185
7.59476
17.094
1156.08
492.772
95.5556
88.5905
97.3062
154.745
160.925
80.501
237.216
85.907
97.2447
81.1168
32.2777
7.90431
5.32401
3.23839
3.06314
4.54379
5.50583
1347.07
943.797
201.399
84.8684
81.4989
82.9905
85.2725
415.182
764.522
621.434
536.292
310.807
28.1372
6.12776
5.19823
3.95114
4.04552
5.09769
5.72212
1445.31
1039.98
295.975
89.5094
86.2907
105.492
306.628
832.003
827.725
794.941
415.461
175.708
46.9487
9.45415
5.50793
4.66359
4.7669
5.79009
5.98187
1203.76
1141.22
474.065
350.453
444.937
675.808
912.169
900.358
601.399
22.8441
0.441672
0.510671
37.6506
61.292
36.1094
4.78955
4.92795
5.69053
5.61319
206.542
856.306
913.627
906.872
902.901
898.366
692.691
354.898
0.493821
0.401245
0.362109
0.306986
0.119059
58.5849
64.2311
59.0607
6.9619
4.19373
4.46868
-1.53506
3.60701
282.228
400.002
332.559
83.4972
0.399717
0.469643
0.464327
0.322621
0.341208
0.168011
-0.255704
-1.23371
25.7561
22.6025
3.66454
3.0315
3.38687
-0.734256
-0.507369
-0.388825
-0.201436
-0.0150091
-0.0387898
0.182164
0.274423
0.346949
0.311208
0.308498
0.203497
-0.144374
-0.70704
-0.0274677
-0.185714
1.35333
2.05898
2.39142
-0.610701
-0.486937
-0.346817
-0.192799
-0.0948902
0.00722733
0.152124
0.229533
0.2871
0.309571
0.327796
0.305375
0.151569
-0.0774482
-0.0289023
0.0640993
0.736506
1.43246
1.76457
-0.103553
-0.471197
-0.360748
-0.226196
-0.11958
-0.0115627
0.105318
0.188762
0.256504
0.303128
0.3486
0.377908
0.377961
0.404194
0.458079
0.507632
0.773872
1.11124
1.53781
2.36069
-0.484585
-0.388558
-0.243512
-0.130618
-0.0242355
0.0771093
0.159379
0.228028
0.289315
0.348375
0.403862
0.464517
0.564323
0.655048
0.64506
0.730432
0.96921
2.306
2.62181
-0.451208
-0.399851
-0.258858
-0.138373
-0.0358426
0.056323
0.136537
0.206789
0.271674
0.335968
0.403392
0.480777
0.569988
0.639622
0.686197
0.683905
0.977816
1.99709
-0.147293
-0.409955
-0.371713
-0.251607
-0.137319
-0.0402691
0.0435891
0.118479
0.186275
0.250282
0.31505
0.384805
0.462198
0.540932
0.601938
0.637947
0.639179
1.23289
0.730654
-0.654014
-0.413815
-0.321736
-0.231886
-0.131747
-0.0438446
0.0324002
0.101629
0.165758
0.226474
0.288123
0.353168
0.4216
0.486391
0.541071
0.572124
0.736176
1.1952
0.711444
-0.583252
-0.447442
-0.324063
-0.215341
-0.126314
-0.0478947
0.0221408
0.0862238
0.145766
0.202127
0.257656
0.313622
0.369476
0.421847
0.467859
0.500679
0.837431
1.1448
0.69829
-0.517658
-0.403947
-0.297615
-0.204523
-0.123242
-0.0511474
0.013872
0.0732579
0.127977
0.178789
0.226369
0.270451
0.311633
0.351545
0.39073
0.427205
0.804498
1.10006
0.578939
-0.462418
-0.366194
-0.274945
-0.19246
-0.118797
-0.0522964
0.00820579
0.06318
0.113269
0.158316
0.197233
0.228631
0.254952
0.282575
0.316236
0.360911
0.790742
0.708759
0.44774
-0.411151
-0.329867
-0.251565
-0.1787
-0.112058
-0.0510167
0.00489718
0.0556329
0.10155
0.141748
0.173402
0.195698
0.208506
0.22478
0.253692
0.305225
0.750742
0.384103
0.394869
-0.363916
-0.294877
-0.227484
-0.163471
-0.103714
-0.0482391
0.00296808
0.0496079
0.0921615
0.128699
0.162679
0.182724
0.180276
0.18934
0.217326
0.268683
0.315106
0.345364
0.351991
-0.320378
-0.261872
-0.203934
-0.147997
-0.0949453
-0.0451031
0.00128427
0.0438658
0.0828184
0.119012
0.156314
0.174482
0.172617
0.18219
0.210375
0.253019
0.287145
0.309809
0.31603
-0.280512
-0.231098
-0.181546
-0.133077
-0.086515
-0.0423279
-0.000948012
0.0371824
0.0727984
0.108723
0.146825
0.170119
0.182443
0.191543
0.215375
0.241866
0.264406
0.278005
0.28391
-0.244473
-0.20297
-0.160846
-0.119176
-0.0787463
-0.0400971
-0.00376869
0.0297169
0.0620004
0.0956483
0.135124
0.162087
0.185118
0.194037
0.211232
0.223833
0.238557
0.249807
0.256815
-0.21209
-0.177435
-0.141861
-0.106321
-0.0715592
-0.0381298
-0.00657597
0.0226298
0.0511451
0.0804219
0.11254
0.146763
0.171802
0.187228
0.193579
0.199389
0.212074
0.222135
0.235846
-0.183118
-0.154347
-0.124493
-0.09439
-0.0647179
-0.0359738
-0.00860684
0.0170416
0.0417197
0.0672659
0.0934642
0.117787
0.144653
0.165162
0.17412
0.171852
0.186479
0.220548
0.266488
-0.157294
-0.133542
-0.108625
-0.0832571
-0.0580228
-0.0333273
-0.00948459
0.0132893
0.0354466
0.0579316
0.0804379
0.101058
0.118948
0.13609
0.147189
0.146006
0.158256
0.214091
2.19269
-0.134343
-0.114834
-0.094135
-0.0728361
-0.0514153
-0.0301885
-0.0093684
0.0108874
0.0306935
0.0502622
0.0691185
0.0860183
0.100442
0.111508
0.120007
0.122054
0.126568
0.106751
3.06133
-0.113983
-0.0980372
-0.0809178
-0.0630977
-0.0449618
-0.0267667
-0.00868624
0.00910544
0.0264739
0.0432427
0.0589258
0.0726826
0.0842897
0.0932438
0.100031
0.10311
0.104334
0.0966367
0.0794849
-0.0959182
-0.082951
-0.0688623
-0.0540297
-0.0387723
-0.0233177
-0.00784817
0.00741357
0.0222212
0.0363054
0.049272
0.0605323
0.0700491
0.0774559
0.0832029
0.0870536
0.0885276
0.0889746
0.0852416
-0.0798604
-0.0693848
-0.0578798
-0.0456557
-0.0329901
-0.0200929
-0.00716582
0.00554288
0.0177967
0.0293773
0.0399896
0.0492223
0.0570995
0.0632935
0.0682642
0.0720858
0.0738733
0.076243
0.0761377
-0.0655698
-0.0572083
-0.0479541
-0.0380725
-0.027807
-0.0173369
-0.00686408
0.00339151
0.0132664
0.0226039
0.0311686
0.0386593
0.0450997
0.0502297
0.0544789
0.0578195
0.05963
0.0618285
0.0621279
-0.0528946
-0.0463774
-0.0391432
-0.0314185
-0.0233988
-0.0152118
-0.00703048
0.00098854
0.00874111
0.0160912
0.0228304
0.0287467
0.0338552
0.0379853
0.0414881
0.0441825
0.0458886
0.0476023
0.0479011
-0.0417515
-0.0368861
-0.0315004
-0.0257667
-0.0198169
-0.013722
-0.00761233
-0.00159038
0.00425319
0.00978675
0.0148389
0.0192879
0.0231397
0.0263055
0.0290222
0.0310567
0.0325327
0.0337469
0.0340505
-0.03206
-0.0286891
-0.0249897
-0.0210642
-0.01698
-0.0127682
-0.00852418
-0.00432531
-0.00026073
0.00356392
0.00703947
0.0101154
0.0127852
0.0150164
0.0169357
0.0183487
0.0194758
0.0202401
0.0205306
-0.0236885
-0.0216603
-0.0194741
-0.0171684
-0.0147596
-0.0122589
-0.00973607
-0.00724975
-0.00486431
-0.00263686
-0.000617004
0.00118107
0.00274521
0.00407177
0.00520894
0.00603581
0.00673961
0.00713848
0.0073734
-0.0164135
-0.0155809
-0.0147626
-0.0139359
-0.013076
-0.0121806
-0.0112865
-0.0104204
-0.00960438
-0.008852
-0.00817607
-0.00757466
-0.00705402
-0.00660848
-0.00622853
-0.00596875
-0.00570932
-0.00561481
-0.0054683
-0.00994029
-0.0102365
-0.0107188
-0.0113014
-0.0119325
-0.0125885
-0.0132617
-0.0139427
-0.0146174
-0.0152681
-0.0158795
-0.0164343
-0.016928
-0.0173548
-0.0177177
-0.0180313
-0.0182244
-0.0184118
-0.0183352
-0.00422962
-0.00560616
-0.00732662
-0.00927575
-0.0113654
-0.0135484
-0.0157729
-0.0179978
-0.0201756
-0.022251
-0.0241756
-0.025907
-0.0274343
-0.028754
-0.0298777
-0.0308173
-0.0314938
-0.0320036
-0.0318577
)
;

boundaryField
{
    leftWall
    {
        type            fixedFluxPressure;
        gradient        uniform 0;
        value           nonuniform List<scalar> 
50
(
1069.03
1072.28
1075.76
1080.03
1085.62
1093.57
1104.32
1118.52
1144.07
1047.05
904.391
1304.52
1552.85
1225.07
890.835
250.645
4.07781
113.946
841.13
949.616
380.98
-0.36342
0.00590592
0.0458436
0.139192
-0.0135669
-0.493577
-1.08416
-1.54199
-1.70717
-1.57353
-1.27475
-0.997228
-0.778416
-0.61352
-0.485769
-0.385072
-0.30611
-0.244425
-0.196025
-0.157692
-0.126991
-0.102083
-0.0815732
-0.0643925
-0.0497187
-0.0368918
-0.025445
-0.0147895
-0.00532072
)
;
    }
    rightWall
    {
        type            fixedFluxPressure;
        gradient        uniform 0;
        value           nonuniform List<scalar> 
50
(
626.894
632.866
607.539
583.197
499.932
384.942
324.748
472.778
568.571
166.362
11.3289
11.0656
15.4172
17.094
5.50583
5.72212
5.98187
5.61319
4.46868
3.38687
2.39142
1.76457
1.53781
2.306
1.99709
0.730654
0.711444
0.69829
0.578939
0.44774
0.394869
0.351991
0.31603
0.28391
0.256815
0.235846
0.266488
2.19269
3.06133
0.0794849
0.0852416
0.0761377
0.0621279
0.0479011
0.0340505
0.0205306
0.0073734
-0.0054683
-0.0183352
-0.0318577
)
;
    }
    lowerWall
    {
        type            fixedFluxPressure;
        gradient        uniform 0;
        value           nonuniform List<scalar> 
62
(
1069.03
1057.64
1039.02
1014.02
986.451
956.315
921.567
881.844
841.211
804.548
775.497
755.58
744.712
741.883
744.112
747.219
750.86
763.436
779.222
800.432
821.681
838.034
844.173
844.173
843.804
844.142
845.72
848.878
853.622
859.661
868.143
876.036
868.024
861.708
839.636
754.469
759.196
759.917
757.389
756.505
698.925
755.877
810.172
754.469
708.805
698.93
679.742
588.116
509.537
476.861
430.582
307.873
268.829
279.518
297.575
343.829
422.609
523.147
560.874
529.184
555.271
626.894
)
;
    }
    atmosphere
    {
        type            totalPressure;
        rho             rho;
        psi             none;
        gamma           1;
        p0              uniform 0;
        value           nonuniform List<scalar> 
46
(
0
0
0
0
0
0
0
0
0
0
0
0
0
0
0
0
0
0
0
0
0
0
0
-6.79706e-05
-0.000226308
-0.000491971
-0.000879376
-0.00179999
-0.00363963
-0.00594268
-0.00855788
-0.0113541
-0.0143027
-0.0173248
-0.0203659
-0.0233514
-0.0261933
-0.0288251
-0.0311829
-0.0332608
-0.0350535
-0.0365871
-0.0378949
-0.0388449
-0.0396075
-0.039223
)
;
    }
    defaultFaces
    {
        type            empty;
    }
}


// ************************************************************************* //
