/*--------------------------------*- C++ -*----------------------------------*\
| =========                 |                                                 |
| \\      /  F ield         | OpenFOAM: The Open Source CFD Toolbox           |
|  \\    /   O peration     | Version:  5.x                                   |
|   \\  /    A nd           | Web:      www.OpenFOAM.org                      |
|    \\/     M anipulation  |                                                 |
\*---------------------------------------------------------------------------*/
FoamFile
{
    version     2.0;
    format      ascii;
    class       volVectorField;
    location    "0.9";
    object      U;
}
// * * * * * * * * * * * * * * * * * * * * * * * * * * * * * * * * * * * * * //

dimensions      [0 1 -1 0 0 0 0];

internalField   nonuniform List<vector> 
2268
(
(0.00334338 -0.00606621 0)
(-0.0088302 0.00237342 0)
(-0.0480174 0.0122568 0)
(-0.112428 0.0176657 0)
(-0.161327 0.0104449 0)
(-0.158206 -0.00258456 0)
(-0.122782 -0.00746658 0)
(-0.093609 -0.00520003 0)
(-0.0760352 -0.00238971 0)
(-0.0694876 0.000179245 0)
(-0.0721309 0.0024805 0)
(-0.0831964 0.00381896 0)
(-0.0989035 0.00188589 0)
(-0.107529 -0.00515563 0)
(-0.100418 -0.0121885 0)
(-0.0980488 -0.00241032 0)
(-0.158614 0.0257146 0)
(-0.273946 0.0282237 0)
(-0.314905 0.00377002 0)
(-0.257471 -0.0186884 0)
(-0.186255 -0.0250235 0)
(-0.107917 -0.0264393 0)
(-0.0330947 -0.0196783 0)
(-0.0269088 0.00908923 0)
(-0.0828051 0.0242346 0)
(-0.145431 0.0374198 0)
(-0.195288 0.0361253 0)
(-0.201507 0.0121114 0)
(-0.170779 -0.0158265 0)
(-0.134246 -0.024933 0)
(-0.0988413 -0.0181989 0)
(-0.0777758 -0.00891402 0)
(-0.068649 -0.00147025 0)
(-0.0676238 0.00476703 0)
(-0.0726545 0.00951003 0)
(-0.0833369 0.010854 0)
(-0.10149 0.00729117 0)
(-0.133943 0.00692333 0)
(-0.186551 0.0299678 0)
(-0.248271 0.0566214 0)
(-0.278319 0.0387307 0)
(-0.216636 -0.0115743 0)
(-0.157703 -0.0437572 0)
(-0.116439 -0.051227 0)
(-0.0694925 -0.0577166 0)
(-0.0187237 -0.0474615 0)
(-0.0370512 0.0405309 0)
(-0.0996578 0.0541034 0)
(-0.158475 0.0601486 0)
(-0.198534 0.046787 0)
(-0.204974 0.00666364 0)
(-0.182954 -0.0332567 0)
(-0.145086 -0.0454751 0)
(-0.109681 -0.0335054 0)
(-0.0852423 -0.017089 0)
(-0.0727332 -0.00465485 0)
(-0.0676972 0.00440675 0)
(-0.0657489 0.0110155 0)
(-0.0662538 0.0157289 0)
(-0.0731793 0.0200034 0)
(-0.0944142 0.0285694 0)
(-0.134297 0.0501729 0)
(-0.167849 0.060684 0)
(-0.145803 0.0206379 0)
(-0.0804655 -0.0418027 0)
(-0.0583231 -0.0624496 0)
(-0.0417837 -0.0621517 0)
(-0.0373751 -0.0701396 0)
(-0.000508378 -0.0599679 0)
(-0.0329398 0.0703772 0)
(-0.0840501 0.0816801 0)
(-0.136272 0.0813381 0)
(-0.178155 0.0595104 0)
(-0.190791 0.00639979 0)
(-0.171718 -0.048087 0)
(-0.144087 -0.0642553 0)
(-0.118369 -0.0480508 0)
(-0.095398 -0.0262361 0)
(-0.081784 -0.00892313 0)
(-0.0768678 0.00267775 0)
(-0.07554 0.00979681 0)
(-0.0746435 0.014783 0)
(-0.0734518 0.0213812 0)
(-0.0705817 0.0352155 0)
(-0.0647743 0.0563378 0)
(-0.0533902 0.0571568 0)
(-0.0205743 0.00989578 0)
(0.002239 -0.0458501 0)
(-0.0165512 -0.0624443 0)
(-0.0138538 -0.059692 0)
(-0.0336807 -0.0733929 0)
(0.00471155 -0.0652501 0)
(-0.0216229 0.0927573 0)
(-0.0559634 0.104462 0)
(-0.0998472 0.100999 0)
(-0.138393 0.0741305 0)
(-0.149229 0.00959034 0)
(-0.134888 -0.0566316 0)
(-0.127191 -0.0739865 0)
(-0.120181 -0.0570317 0)
(-0.104157 -0.0339496 0)
(-0.0913048 -0.0128386 0)
(-0.0858308 0.00187489 0)
(-0.0845958 0.00976879 0)
(-0.084083 0.0142483 0)
(-0.0822572 0.0187829 0)
(-0.0730905 0.0280937 0)
(-0.0475505 0.0424278 0)
(-0.0106873 0.0398708 0)
(0.0179498 -0.000863881 0)
(0.00938107 -0.0427328 0)
(-0.0248157 -0.0570071 0)
(-0.0256963 -0.0562224 0)
(-0.039866 -0.0788776 0)
(0.000366598 -0.0742721 0)
(-0.00605713 0.105204 0)
(-0.0209827 0.121085 0)
(-0.0525309 0.116037 0)
(-0.0815145 0.0858646 0)
(-0.0896477 0.0137932 0)
(-0.0822071 -0.058127 0)
(-0.102716 -0.0746822 0)
(-0.117173 -0.0596229 0)
(-0.108575 -0.0390516 0)
(-0.0966862 -0.0156372 0)
(-0.0897359 0.0013847 0)
(-0.0862941 0.00990378 0)
(-0.0841046 0.0144459 0)
(-0.0825331 0.0170647 0)
(-0.0761742 0.0202412 0)
(-0.0559981 0.0256436 0)
(-0.0240294 0.0214197 0)
(-0.00600023 -0.00251936 0)
(-0.0114083 -0.0328304 0)
(-0.0333619 -0.0502274 0)
(-0.0316674 -0.0557686 0)
(-0.0340833 -0.0868357 0)
(-0.003994 -0.0851429 0)
(0.0139757 0.103678 0)
(0.0184847 0.129353 0)
(-0.0024984 0.125725 0)
(-0.0204276 0.0952219 0)
(-0.0236266 0.0208632 0)
(-0.0205712 -0.0541829 0)
(-0.0830673 -0.0667089 0)
(-0.110601 -0.0571112 0)
(-0.0969412 -0.042927 0)
(-0.0786096 -0.0187109 0)
(-0.0692257 -0.000395819 0)
(-0.063737 0.00749665 0)
(-0.0604611 0.0135056 0)
(-0.0611449 0.0170303 0)
(-0.0602354 0.0170517 0)
(-0.0486109 0.01663 0)
(-0.0272009 0.0117658 0)
(-0.0110512 -0.0052769 0)
(-0.0075113 -0.0283257 0)
(-0.0164795 -0.0467417 0)
(-0.0177488 -0.0562066 0)
(-0.0162817 -0.0919796 0)
(-0.00395993 -0.0943488 0)
(0.0358282 0.0916712 0)
(0.0623808 0.134423 0)
(0.0545337 0.130635 0)
(0.0599621 0.0961812 0)
(0.0750782 0.0197012 0)
(0.0392863 -0.0337778 0)
(-0.0769589 -0.0333673 0)
(-0.0973884 -0.0529609 0)
(-0.0648382 -0.0564462 0)
(-0.0452119 -0.0292848 0)
(-0.0465745 -0.00245262 0)
(-0.0462342 0.00891048 0)
(-0.0396664 0.0163438 0)
(-0.037742 0.0179424 0)
(-0.0376384 0.0134438 0)
(-0.0291452 0.00931011 0)
(-0.0113923 0.00567983 0)
(0.00352768 -0.0089095 0)
(0.0106166 -0.0272953 0)
(0.00781594 -0.0421947 0)
(0.000532945 -0.053903 0)
(-0.00301768 -0.0911211 0)
(-0.0107501 -0.0976498 0)
(0.0259078 0.0100169 0)
(-0.236953 0.0420895 0)
(-0.244462 -0.0227124 0)
(0.0599706 -0.0746933 0)
(0.28424 -0.0428879 0)
(0.379891 -0.00238216 0)
(0.384472 0.0109124 0)
(0.201718 0.0510728 0)
(-0.205261 0.0249457 0)
(0.0859099 -0.0517103 0)
(0.1513 -0.0340119 0)
(0.111873 -0.0510605 0)
(0.0680331 -0.0510887 0)
(0.0605943 -6.81943e-05 0)
(-0.0833312 0.0440143 0)
(-0.272135 0.0186369 0)
(-0.388702 0.0462329 0)
(-0.457983 0.00570938 0)
(-0.117096 -0.0900749 0)
(-0.0945383 0.0762169 0)
(-0.306226 0.0784474 0)
(-0.125524 -0.0989378 0)
(0.200227 -0.187895 0)
(0.338625 -0.0924788 0)
(0.377649 -0.0127251 0)
(0.382036 0.0384887 0)
(0.082563 0.159833 0)
(0.0391886 0.0376336 0)
(0.42397 -0.129165 0)
(0.510537 -0.0161704 0)
(0.415509 0.0987106 0)
(0.202064 0.0774384 0)
(0.0641908 0.0565909 0)
(-0.00575224 0.115598 0)
(-0.319904 0.0862991 0)
(-0.499804 0.0540199 0)
(-0.323471 -0.0927663 0)
(0.00183064 -0.199286 0)
(-0.140607 0.149538 0)
(-0.258325 0.0825553 0)
(-0.0405418 -0.226224 0)
(0.231901 -0.305114 0)
(0.30415 -0.122516 0)
(0.294041 0.00536828 0)
(0.0754926 0.136259 0)
(-0.169213 0.209993 0)
(0.473056 -0.107415 0)
(0.503795 -0.155361 0)
(0.380926 -0.0128632 0)
(0.357081 0.123712 0)
(0.318311 0.099604 0)
(0.123736 0.0929279 0)
(0.0346039 0.190614 0)
(-0.236933 0.173894 0)
(-0.447848 0.0579918 0)
(-0.184762 -0.186369 0)
(-0.00961149 -0.254616 0)
(-0.137152 0.216686 0)
(-0.183781 0.0690952 0)
(0.0449301 -0.335838 0)
(0.145861 -0.370295 0)
(0.138776 -0.109104 0)
(0.0313655 0.089231 0)
(-0.219107 0.210127 0)
(-0.0107323 0.0506497 0)
(0.466371 -0.253342 0)
(0.559388 -0.163685 0)
(0.452026 -0.0183274 0)
(0.390396 0.0881019 0)
(0.321053 0.151525 0)
(0.0922853 0.144678 0)
(-0.0312822 0.261923 0)
(-0.147199 0.247229 0)
(-0.33208 0.038482 0)
(-0.00153521 -0.253617 0)
(-0.0354077 -0.281127 0)
(-0.106155 0.268655 0)
(-0.108535 0.0472008 0)
(0.114988 -0.394737 0)
(-0.00714312 -0.345224 0)
(-0.125142 -0.0205049 0)
(-0.299205 0.18097 0)
(-0.324745 0.171243 0)
(0.266701 -0.169272 0)
(0.500589 -0.348304 0)
(0.696888 -0.143565 0)
(0.566651 0.0937927 0)
(-0.177258 0.213356 0)
(-0.305969 0.266017 0)
(-0.203674 0.221081 0)
(-0.156236 0.284896 0)
(-0.0835616 0.284127 0)
(-0.220357 0.0287196 0)
(0.110169 -0.300528 0)
(-0.00712182 -0.266895 0)
(-0.064979 0.29543 0)
(-0.040093 0.0156892 0)
(0.123039 -0.390107 0)
(-0.189669 -0.24813 0)
(-0.370688 0.0631913 0)
(-0.445887 0.164984 0)
(-0.247449 -0.0194859 0)
(-0.0401576 -0.287004 0)
(0.210473 -0.497864 0)
(0.677885 -0.0477642 0)
(0.356517 0.451804 0)
(-0.950541 0.403701 0)
(-0.914853 0.277474 0)
(-0.550216 0.157909 0)
(-0.305705 0.246783 0)
(-0.0764292 0.27624 0)
(-0.110285 -0.00797359 0)
(0.0159757 -0.321459 0)
(0.0588651 -0.241793 0)
(-0.0328444 0.309782 0)
(0.012304 -0.0189759 0)
(0.0868439 -0.334408 0)
(-0.335185 -0.130821 0)
(-0.494383 0.117262 0)
(-0.466371 0.117724 0)
(-0.418507 0.0314061 0)
(-0.406618 -0.431313 0)
(-0.436336 -0.691475 0)
(-0.144715 -0.0826824 0)
(-0.226867 0.763798 0)
(-1.4098 0.579374 0)
(-1.03345 0.140442 0)
(-0.752918 -0.00481702 0)
(-0.486767 0.0848956 0)
(-0.170755 0.171805 0)
(-0.0627027 -0.0260208 0)
(-0.128639 -0.336661 0)
(0.0799412 -0.227726 0)
(-0.000591838 0.303154 0)
(0.0537195 -0.0175153 0)
(0.0406006 -0.251868 0)
(-0.416684 -0.0180752 0)
(-0.509287 0.132427 0)
(-0.422062 0.0981698 0)
(-0.556142 0.03397 0)
(-0.571928 -0.499412 0)
(-0.73775 -0.667566 0)
(-0.774166 -0.0704821 0)
(-1.01568 1.14113 0)
(-1.35942 0.502114 0)
(-1.06397 0.0280237 0)
(-0.955009 -0.0457496 0)
(-0.703381 0.0170224 0)
(-0.41634 0.110582 0)
(-0.266129 -0.0551147 0)
(-0.211824 -0.404032 0)
(0.0188018 -0.273055 0)
(0.0916865 0.0362626 0)
(0.160743 0.1338 0)
(0.168821 0.131655 0)
(0.15514 0.110473 0)
(0.055577 0.0700869 0)
(-0.0927966 0.0498258 0)
(-0.148852 -0.00668693 0)
(-0.134466 -0.0773867 0)
(-0.0981165 -0.0739445 0)
(-0.0779004 -0.0346636 0)
(-0.0942929 -0.0130544 0)
(-0.102978 -0.0131604 0)
(-0.0912728 -0.00314564 0)
(-0.0792312 0.00999589 0)
(-0.0749426 0.00627969 0)
(-0.0645892 -0.00450634 0)
(-0.0404075 -0.0127904 0)
(-0.0152402 -0.0228216 0)
(-0.00702747 -0.0312915 0)
(-0.0185389 -0.0336146 0)
(-0.0476846 -0.0382124 0)
(-0.0792455 -0.0734211 0)
(-0.088635 -0.0801152 0)
(0.0709805 -0.173211 0)
(0.211121 0.054399 0)
(0.166965 0.107236 0)
(0.13818 0.20576 0)
(-0.0353236 0.246556 0)
(-0.238428 0.148063 0)
(-0.352544 0.0110738 0)
(-0.37523 -0.0779841 0)
(-0.230291 -0.104682 0)
(0.0083881 -0.0143537 0)
(0.0410279 0.0370128 0)
(-0.0793921 0.00217971 0)
(-0.138984 -0.00432361 0)
(-0.138756 0.00386492 0)
(-0.130499 -0.00483454 0)
(-0.170994 -0.0264256 0)
(-0.21731 -0.0358634 0)
(-0.249874 -0.0364808 0)
(-0.277081 -0.0337742 0)
(-0.348984 -0.0182355 0)
(-0.456257 0.00728545 0)
(-0.470867 -0.0359071 0)
(-0.314148 -0.145418 0)
(-0.142254 -0.390419 0)
(-0.0339482 0.0882792 0)
(-0.376607 0.189908 0)
(-0.530682 0.339817 0)
(-0.659055 0.432445 0)
(-0.764721 0.338248 0)
(-0.749448 0.115617 0)
(-0.63314 -0.258185 0)
(-0.526362 -0.489833 0)
(-0.189275 -0.350586 0)
(0.112214 0.12404 0)
(-0.256219 0.23729 0)
(-1.04016 0.173053 0)
(-1.83084 0.112721 0)
(-2.4929 0.15574 0)
(-2.866 0.211242 0)
(-2.60185 0.113947 0)
(-2.3601 -0.0386797 0)
(-2.04365 -0.0013268 0)
(-1.69656 0.133666 0)
(-1.28285 0.0534061 0)
(-0.818762 -0.430905 0)
(-0.586418 -0.48593 0)
(-0.431102 0.126688 0)
(-0.718414 0.481057 0)
(-1.18458 0.548557 0)
(-1.48494 0.638823 0)
(-1.61195 0.571539 0)
(-1.57529 0.25095 0)
(-1.416 -0.163385 0)
(-1.34383 -0.50367 0)
(-1.33127 -0.552697 0)
(-1.27248 -0.318121 0)
(-1.45392 0.204935 0)
(-1.62016 0.746774 0)
(-2.10809 1.14113 0)
(-2.75372 1.16893 0)
(-2.89806 0.630202 0)
(-2.3808 -0.139035 0)
(-1.73781 -0.663714 0)
(-1.38547 -0.737527 0)
(-1.28992 -0.578887 0)
(-1.06216 -0.366285 0)
(-0.760426 -0.467152 0)
(-0.638579 -0.693349 0)
(-0.621114 -0.643928 0)
(-0.620609 0.649856 0)
(-1.13333 0.851336 0)
(-1.69045 0.917678 0)
(-1.95449 0.715429 0)
(-1.93349 0.411545 0)
(-1.8781 0.109405 0)
(-1.85037 -0.220789 0)
(-1.90118 -0.478294 0)
(-1.99874 -0.481283 0)
(-2.15575 -0.0614829 0)
(-2.32904 0.452266 0)
(-2.35942 1.02084 0)
(-2.34895 1.3331 0)
(-2.26503 1.05906 0)
(-1.84842 0.249442 0)
(-1.18907 -0.650487 0)
(-1.08761 -0.818082 0)
(-1.05501 -0.786235 0)
(-0.999308 -0.656681 0)
(-0.832477 -0.508967 0)
(-0.650984 -0.53489 0)
(-0.600478 -0.662772 0)
(-0.640407 -0.654174 0)
(-0.601827 1.30859 0)
(-0.889694 1.52763 0)
(-1.61301 1.39797 0)
(-1.86281 0.746617 0)
(-1.90508 0.418801 0)
(-1.90924 0.125797 0)
(-1.96734 -0.197389 0)
(-2.08927 -0.395335 0)
(-2.23073 -0.323572 0)
(-2.37083 0.11974 0)
(-2.33488 0.561583 0)
(-2.08201 0.944054 0)
(-1.839 1.07709 0)
(-1.49645 0.615846 0)
(-0.965525 -0.164419 0)
(-0.852888 -0.719312 0)
(-0.924204 -0.782554 0)
(-0.961793 -0.780221 0)
(-0.940427 -0.726042 0)
(-0.859288 -0.659041 0)
(-0.783561 -0.655572 0)
(-0.769494 -0.672309 0)
(-0.755329 -0.61907 0)
(-0.551536 1.93508 0)
(-0.542025 2.32723 0)
(-1.30856 1.93855 0)
(-1.5793 0.847221 0)
(-1.64616 0.474693 0)
(-1.75241 0.271822 0)
(-1.93885 0.0388884 0)
(-2.19499 -0.143578 0)
(-2.27464 -0.154354 0)
(-2.18432 -0.124738 0)
(-2.02639 0.039329 0)
(-1.70778 0.312414 0)
(-1.14901 0.538424 0)
(-0.707829 0.199949 0)
(-0.510915 -0.270298 0)
(-0.900312 -0.562727 0)
(-0.966877 -0.712267 0)
(-0.963925 -0.773576 0)
(-0.9735 -0.735302 0)
(-0.977167 -0.66492 0)
(-0.972769 -0.642556 0)
(-0.938416 -0.667446 0)
(-0.870539 -0.62236 0)
(-0.507851 2.23658 0)
(-0.109326 3.09522 0)
(-0.857772 2.59496 0)
(-0.932413 1.20361 0)
(-1.15648 0.731007 0)
(-1.31591 0.457115 0)
(-1.51557 0.201086 0)
(-1.77037 -0.0493216 0)
(-1.98234 -0.0932921 0)
(-1.99676 -0.0529144 0)
(-1.99129 0.0342778 0)
(-1.87204 0.123295 0)
(-1.6032 0.132696 0)
(-1.29334 0.0374212 0)
(-1.15683 -0.190093 0)
(-1.22059 -0.482531 0)
(-1.28778 -0.677958 0)
(-1.32461 -0.754349 0)
(-1.52096 -0.70345 0)
(-1.71574 -0.675364 0)
(-1.50098 -0.820643 0)
(-1.25921 -0.884164 0)
(-1.01673 -0.725767 0)
(-0.414387 2.27312 0)
(0.153549 3.35894 0)
(-0.584329 2.68612 0)
(-0.435169 1.46575 0)
(-0.771962 0.899097 0)
(-0.93341 0.60999 0)
(-1.16104 0.387762 0)
(-1.3678 0.201938 0)
(-1.54972 0.049491 0)
(-1.75656 -0.0891445 0)
(-1.87343 -0.0237277 0)
(-1.74064 -0.0714789 0)
(-1.63998 -0.196283 0)
(-1.55173 -0.340354 0)
(-1.53447 -0.438597 0)
(-1.71486 -0.465343 0)
(-1.82685 -0.523362 0)
(-2.04051 -0.558078 0)
(-2.00036 -0.495196 0)
(-1.75712 -0.709105 0)
(-1.53638 -0.996472 0)
(-1.38658 -1.11625 0)
(-1.23866 -0.957199 0)
(-0.644416 2.42016 0)
(0.241005 3.39476 0)
(-0.524315 2.59326 0)
(-0.0706812 1.58511 0)
(-0.480514 1.05987 0)
(-0.558495 0.824471 0)
(-0.758685 0.624037 0)
(-0.955391 0.440727 0)
(-1.18083 0.254706 0)
(-1.36658 0.0958606 0)
(-1.45551 0.0701824 0)
(-1.54353 -0.011296 0)
(-1.7261 -0.0352135 0)
(-1.93769 -0.0048995 0)
(-2.09078 -0.0342877 0)
(-2.14836 -0.188197 0)
(-2.1067 -0.378949 0)
(-2.01998 -0.637893 0)
(-1.91037 -0.810801 0)
(-1.79116 -0.953829 0)
(-1.71108 -1.10359 0)
(-1.61349 -1.23167 0)
(-1.42418 -1.22116 0)
(-0.854871 2.64798 0)
(0.450247 3.27653 0)
(-0.653844 2.51683 0)
(0.17199 1.6235 0)
(-0.327811 1.19603 0)
(-0.312034 0.987783 0)
(-0.477458 0.805655 0)
(-0.598893 0.647853 0)
(-0.757061 0.481009 0)
(-0.957933 0.313832 0)
(-1.17123 0.206538 0)
(-1.33785 0.155405 0)
(-1.48312 0.12798 0)
(-1.62973 0.0462228 0)
(-1.72023 -0.11912 0)
(-1.74306 -0.327134 0)
(-1.74677 -0.518686 0)
(-1.73618 -0.705087 0)
(-1.70049 -0.883662 0)
(-1.66295 -1.06191 0)
(-1.64439 -1.22357 0)
(-1.66719 -1.32564 0)
(-1.64318 -1.35387 0)
(-0.933689 2.76223 0)
(0.58799 3.60144 0)
(-0.651744 2.40957 0)
(0.235587 1.61313 0)
(-0.327788 1.32976 0)
(-0.313887 1.10651 0)
(-0.466873 0.905258 0)
(-0.507137 0.74099 0)
(-0.530001 0.605795 0)
(-0.570112 0.490259 0)
(-0.66067 0.390554 0)
(-0.788385 0.306161 0)
(-0.915526 0.242195 0)
(-1.01521 0.149431 0)
(-1.10374 -0.0335393 0)
(-1.19154 -0.274649 0)
(-1.2439 -0.511173 0)
(-1.26281 -0.728649 0)
(-1.25998 -0.912561 0)
(-1.25934 -1.05329 0)
(-1.2775 -1.15028 0)
(-1.38585 -1.23718 0)
(-1.56063 -1.32695 0)
(-0.934188 2.77419 0)
(0.919199 3.67099 0)
(-0.282014 2.42002 0)
(0.180199 1.70112 0)
(-0.44445 1.52424 0)
(-0.540266 1.25474 0)
(-0.70413 0.976494 0)
(-0.692993 0.730404 0)
(-0.598397 0.557877 0)
(-0.462008 0.463422 0)
(-0.337106 0.422348 0)
(-0.258714 0.394811 0)
(-0.241161 0.349556 0)
(-0.263279 0.255113 0)
(-0.306499 0.0968448 0)
(-0.380549 -0.131611 0)
(-0.489447 -0.380683 0)
(-0.573468 -0.637025 0)
(-0.642224 -0.852075 0)
(-0.698645 -0.998976 0)
(-0.759115 -1.0505 0)
(-0.876528 -1.05908 0)
(-1.05344 -1.07806 0)
(-0.774105 2.4872 0)
(0.714352 3.44111 0)
(-0.0502213 2.57227 0)
(0.019899 1.98948 0)
(-0.644626 1.82364 0)
(-0.873494 1.46576 0)
(-1.06215 1.04584 0)
(-1.02571 0.651878 0)
(-0.850458 0.375846 0)
(-0.596134 0.236362 0)
(-0.322422 0.207048 0)
(-0.0676464 0.23887 0)
(0.137916 0.267884 0)
(0.274944 0.244407 0)
(0.341402 0.141195 0)
(0.341679 -0.0339832 0)
(0.29021 -0.271413 0)
(0.20364 -0.551015 0)
(0.0545925 -0.743897 0)
(-0.0990245 -0.894004 0)
(-0.284877 -0.943245 0)
(-0.381549 -0.909429 0)
(-0.557828 -0.917697 0)
(-0.477711 2.52655 0)
(0.548078 3.26298 0)
(-0.0702285 2.80391 0)
(-0.186099 2.42835 0)
(-0.843698 2.2062 0)
(-1.16519 1.7236 0)
(-1.37429 1.10907 0)
(-1.32969 0.505465 0)
(-1.10445 0.0799862 0)
(-0.77042 -0.118849 0)
(-0.414565 -0.14122 0)
(-0.0949092 -0.0856471 0)
(0.18165 -0.0135772 0)
(0.412936 0.0340814 0)
(0.581354 0.0214288 0)
(0.678517 -0.0600427 0)
(0.693139 -0.198877 0)
(0.622263 -0.379845 0)
(0.458497 -0.547612 0)
(0.29087 -0.720436 0)
(0.0692091 -0.820726 0)
(-0.0405512 -0.753887 0)
(-0.188716 -0.774211 0)
(-0.0769563 2.44005 0)
(0.514972 3.34639 0)
(-0.0367971 3.06709 0)
(-0.24555 2.8686 0)
(-0.829799 2.61887 0)
(-1.17155 1.99619 0)
(-1.39513 1.15148 0)
(-1.3348 0.305092 0)
(-1.11416 -0.316137 0)
(-0.766583 -0.568045 0)
(-0.381815 -0.536014 0)
(-0.0484389 -0.399465 0)
(0.203077 -0.275355 0)
(0.404686 -0.195732 0)
(0.571511 -0.163137 0)
(0.698909 -0.174041 0)
(0.770856 -0.228244 0)
(0.773835 -0.310646 0)
(0.702593 -0.40832 0)
(0.571638 -0.515752 0)
(0.366138 -0.61341 0)
(0.196753 -0.647977 0)
(0.0967429 -0.638711 0)
(0.318975 1.97388 0)
(0.8604 3.4648 0)
(0.506232 3.49238 0)
(0.155177 3.26833 0)
(-0.347025 2.99429 0)
(-0.604415 2.29437 0)
(-0.72976 1.24838 0)
(-0.670829 0.185453 0)
(-0.607051 -0.591092 0)
(-0.412742 -0.943351 0)
(-0.132479 -0.898018 0)
(0.128622 -0.679991 0)
(0.329404 -0.470793 0)
(0.47399 -0.339044 0)
(0.580024 -0.280999 0)
(0.663877 -0.269746 0)
(0.725735 -0.286105 0)
(0.756875 -0.317575 0)
(0.748406 -0.353681 0)
(0.700302 -0.392457 0)
(0.602078 -0.44505 0)
(0.451423 -0.510357 0)
(0.332956 -0.561108 0)
(0.306939 1.13206 0)
(1.18029 3.11697 0)
(1.39804 3.82755 0)
(1.18532 3.75696 0)
(0.780478 3.36642 0)
(0.535102 2.5895 0)
(0.428719 1.45218 0)
(0.417523 0.297455 0)
(0.4053 -0.601432 0)
(0.308662 -1.06739 0)
(0.337756 -1.08082 0)
(0.43387 -0.844741 0)
(0.52498 -0.591752 0)
(0.594387 -0.422891 0)
(0.64279 -0.340047 0)
(0.676773 -0.313896 0)
(0.700576 -0.31712 0)
(0.71448 -0.331369 0)
(0.716179 -0.34748 0)
(0.704217 -0.363258 0)
(0.680083 -0.374816 0)
(0.636504 -0.395395 0)
(0.566372 -0.446451 0)
(0.044183 0.475983 0)
(1.09869 2.2358 0)
(1.94024 3.52879 0)
(2.26427 3.95789 0)
(2.19341 3.69173 0)
(2.01366 2.8783 0)
(1.83589 1.70653 0)
(1.67314 0.50605 0)
(1.44893 -0.420891 0)
(1.15175 -0.929797 0)
(0.911084 -1.01636 0)
(0.795258 -0.831262 0)
(0.746309 -0.600345 0)
(0.727385 -0.436707 0)
(0.719479 -0.351312 0)
(0.713765 -0.319423 0)
(0.706107 -0.316619 0)
(0.69561 -0.326404 0)
(0.683413 -0.339504 0)
(0.671176 -0.353339 0)
(0.660483 -0.367933 0)
(0.655691 -0.382057 0)
(0.650239 -0.405456 0)
(0.0381642 0.0796851 0)
(0.684274 1.10482 0)
(1.78857 2.58692 0)
(2.60835 3.5116 0)
(2.98858 3.62854 0)
(3.04177 3.02727 0)
(2.89262 1.97339 0)
(2.61116 0.833664 0)
(2.20634 -0.0640133 0)
(1.7546 -0.595209 0)
(1.35899 -0.751868 0)
(1.08997 -0.657241 0)
(0.928865 -0.501161 0)
(0.837853 -0.383305 0)
(0.783957 -0.319912 0)
(0.74727 -0.29568 0)
(0.717463 -0.294058 0)
(0.690035 -0.303655 0)
(0.664195 -0.318576 0)
(0.640898 -0.337641 0)
(0.621871 -0.360862 0)
(0.611104 -0.387247 0)
(0.607613 -0.417245 0)
(0.0543673 -0.163463 0)
(0.257532 0.341795 0)
(1.14528 1.58291 0)
(2.08222 2.68819 0)
(2.73625 3.16459 0)
(3.04463 2.90576 0)
(3.04954 2.11175 0)
(2.80472 1.16699 0)
(2.40608 0.36612 0)
(1.96346 -0.170024 0)
(1.54841 -0.393089 0)
(1.23367 -0.401412 0)
(1.02735 -0.339979 0)
(0.90078 -0.286419 0)
(0.820055 -0.258482 0)
(0.763714 -0.251143 0)
(0.719752 -0.256976 0)
(0.682233 -0.270264 0)
(0.648765 -0.288005 0)
(0.618306 -0.310626 0)
(0.590153 -0.33991 0)
(0.565946 -0.373701 0)
(0.545638 -0.408854 0)
(-0.0168215 -0.230919 0)
(-0.0524647 0.0398179 0)
(0.350041 0.900215 0)
(1.11818 1.93331 0)
(1.80618 2.58132 0)
(2.25381 2.5993 0)
(2.42893 2.10789 0)
(2.35486 1.39418 0)
(2.12892 0.7063 0)
(1.81707 0.202028 0)
(1.49597 -0.0565284 0)
(1.22775 -0.148701 0)
(1.03805 -0.170407 0)
(0.911339 -0.176248 0)
(0.82375 -0.183501 0)
(0.759328 -0.195446 0)
(0.708568 -0.211871 0)
(0.666111 -0.231468 0)
(0.629173 -0.253314 0)
(0.595913 -0.278302 0)
(0.563762 -0.30883 0)
(0.531242 -0.344635 0)
(0.497956 -0.381241 0)
(-0.0839534 -0.137993 0)
(-0.29155 0.013385 0)
(-0.250173 0.547089 0)
(0.189829 1.37744 0)
(0.75985 2.02918 0)
(1.24051 2.21121 0)
(1.55794 1.9483 0)
(1.68809 1.42941 0)
(1.6585 0.875772 0)
(1.51549 0.447666 0)
(1.31776 0.186294 0)
(1.13221 0.0478337 0)
(0.987915 -0.0270982 0)
(0.880718 -0.0739417 0)
(0.799701 -0.108177 0)
(0.736483 -0.137029 0)
(0.685157 -0.164033 0)
(0.641784 -0.190586 0)
(0.603971 -0.217137 0)
(0.56992 -0.244598 0)
(0.536968 -0.274834 0)
(0.502447 -0.308385 0)
(0.464311 -0.342255 0)
(-0.0863206 0.0530051 0)
(-0.35718 0.164628 0)
(-0.488396 0.45868 0)
(-0.340443 1.00617 0)
(0.044553 1.5418 0)
(0.494262 1.76927 0)
(0.875518 1.64468 0)
(1.1254 1.29463 0)
(1.23067 0.894609 0)
(1.20608 0.560996 0)
(1.11168 0.328996 0)
(1.00343 0.178694 0)
(0.906029 0.079531 0)
(0.824229 0.0105967 0)
(0.756561 -0.0406588 0)
(0.700316 -0.0819284 0)
(0.652696 -0.117605 0)
(0.611345 -0.15024 0)
(0.574489 -0.181055 0)
(0.540729 -0.210954 0)
(0.508181 -0.241025 0)
(0.474658 -0.271906 0)
(0.437593 -0.302233 0)
(-0.0569972 0.241738 0)
(-0.282401 0.367122 0)
(-0.431482 0.512461 0)
(-0.407643 0.821094 0)
(-0.179371 1.1696 0)
(0.172449 1.34982 0)
(0.520448 1.29952 0)
(0.781959 1.08943 0)
(0.921111 0.825797 0)
(0.954591 0.585493 0)
(0.92661 0.39645 0)
(0.873011 0.255936 0)
(0.813099 0.152543 0)
(0.755305 0.0752092 0)
(0.702659 0.0152844 0)
(0.655877 -0.0334656 0)
(0.614286 -0.0752086 0)
(0.5767 -0.112306 0)
(0.542149 -0.146287 0)
(0.509745 -0.178027 0)
(0.478323 -0.20831 0)
(0.446569 -0.23768 0)
(0.412575 -0.265588 0)
(-0.0290279 0.368135 0)
(-0.166305 0.5302 0)
(-0.262467 0.592079 0)
(-0.253906 0.745202 0)
(-0.111379 0.93541 0)
(0.131577 1.04554 0)
(0.38667 1.02567 0)
(0.589499 0.904287 0)
(0.713605 0.736267 0)
(0.767866 0.566569 0)
(0.774752 0.417747 0)
(0.75456 0.295966 0)
(0.72121 0.198969 0)
(0.683021 0.121655 0)
(0.644422 0.0589329 0)
(0.60725 0.00672836 0)
(0.572229 -0.038229 0)
(0.539346 -0.0779494 0)
(0.508057 -0.113794 0)
(0.477897 -0.146683 0)
(0.448235 -0.177307 0)
(0.418535 -0.206014 0)
(0.38756 -0.232593 0)
(-0.0158338 0.432746 0)
(-0.0771959 0.615859 0)
(-0.11566 0.629245 0)
(-0.0934673 0.692973 0)
(0.0051679 0.789242 0)
(0.162417 0.848066 0)
(0.331083 0.837777 0)
(0.474381 0.764099 0)
(0.574416 0.652897 0)
(0.631087 0.530612 0)
(0.653278 0.414637 0)
(0.651858 0.312689 0)
(0.636115 0.226078 0)
(0.612641 0.153197 0)
(0.585561 0.0915843 0)
(0.557185 0.0388082 0)
(0.528678 -0.00705059 0)
(0.500588 -0.047761 0)
(0.472959 -0.0844164 0)
(0.445602 -0.117832 0)
(0.418287 -0.14854 0)
(0.39086 -0.176848 0)
(0.362518 -0.202699 0)
(-0.011176 0.461167 0)
(-0.0272527 0.640771 0)
(-0.025632 0.626073 0)
(0.00733032 0.64155 0)
(0.0800623 0.687716 0)
(0.18335 0.718737 0)
(0.29611 0.710115 0)
(0.398241 0.660033 0)
(0.477059 0.581556 0)
(0.52878 0.490839 0)
(0.55607 0.399981 0)
(0.564508 0.315529 0)
(0.559864 0.239937 0)
(0.546808 0.173418 0)
(0.528659 0.115159 0)
(0.507591 0.0639775 0)
(0.484925 0.0186834 0)
(0.461455 -0.0217953 0)
(0.437553 -0.0584517 0)
(0.413331 -0.0917665 0)
(0.388725 -0.12223 0)
(0.363786 -0.150125 0)
(0.338029 -0.175413 0)
(-0.00757813 0.471785 0)
(-0.00194754 0.633373 0)
(0.0217552 0.602618 0)
(0.0587081 0.593344 0)
(0.114951 0.613508 0)
(0.187758 0.629111 0)
(0.267543 0.619333 0)
(0.342961 0.581258 0)
(0.405133 0.522454 0)
(0.449918 0.452922 0)
(0.477521 0.380634 0)
(0.490624 0.310528 0)
(0.492617 0.245138 0)
(0.486608 0.185465 0)
(0.475076 0.131603 0)
(0.459849 0.0831573 0)
(0.442198 0.0395266 0)
(0.422893 8.23278e-05 0)
(0.40256 -0.0358142 0)
(0.381503 -0.0686003 0)
(0.359694 -0.098591 0)
(0.337378 -0.125988 0)
(0.314256 -0.150791 0)
(-0.00353303 0.471928 0)
(0.0122803 0.611798 0)
(0.0450922 0.570764 0)
(0.0820276 0.549735 0)
(0.127637 0.55701 0)
(0.182453 0.563323 0)
(0.242096 0.551812 0)
(0.299761 0.520356 0)
(0.349323 0.473932 0)
(0.387343 0.418826 0)
(0.413183 0.360161 0)
(0.428001 0.301461 0)
(0.433701 0.244937 0)
(0.432275 0.191822 0)
(0.425491 0.142646 0)
(0.414784 0.097475 0)
(0.401247 0.0561075 0)
(0.385656 0.0182296 0)
(0.368576 -0.0164176 0)
(0.350425 -0.0483564 0)
(0.331389 -0.0776593 0)
(0.311678 -0.104483 0)
(0.291139 -0.128806 0)
(-0.000136549 0.465133 0)
(0.020854 0.583745 0)
(0.0561252 0.536461 0)
(0.0909428 0.511096 0)
(0.129017 0.511981 0)
(0.172312 0.512587 0)
(0.218836 0.499649 0)
(0.264236 0.472243 0)
(0.304276 0.434011 0)
(0.336358 0.388967 0)
(0.359661 0.340349 0)
(0.374582 0.290608 0)
(0.38214 0.241537 0)
(0.383572 0.19434 0)
(0.380097 0.14971 0)
(0.372799 0.107954 0)
(0.362576 0.0691226 0)
(0.350143 0.0331295 0)
(0.335923 -0.000160203 0)
(0.320391 -0.0309651 0)
(0.303894 -0.0593661 0)
(0.286646 -0.0855008 0)
(0.268583 -0.109315 0)
(0.00222282 0.453853 0)
(0.0256203 0.553223 0)
(0.0603032 0.502911 0)
(0.0921084 0.477082 0)
(0.12447 0.474932 0)
(0.159861 0.471987 0)
(0.197341 0.458111 0)
(0.233945 0.433488 0)
(0.266725 0.400971 0)
(0.293802 0.363137 0)
(0.31442 0.322013 0)
(0.328617 0.279293 0)
(0.336897 0.236385 0)
(0.340007 0.194355 0)
(0.338768 0.153916 0)
(0.333976 0.115478 0)
(0.326335 0.0792356 0)
(0.316433 0.0452413 0)
(0.304705 0.0134596 0)
(0.291628 -0.0160513 0)
(0.277452 -0.0435303 0)
(0.262429 -0.068909 0)
(0.246642 -0.0922047 0)
(0.0037728 0.440039 0)
(0.0277076 0.522588 0)
(0.0603448 0.471521 0)
(0.0889177 0.447216 0)
(0.116774 0.443767 0)
(0.146424 0.438587 0)
(0.177359 0.424238 0)
(0.207442 0.40175 0)
(0.234607 0.373419 0)
(0.257534 0.3409 0)
(0.2756 0.305453 0)
(0.288684 0.26826 0)
(0.297007 0.230414 0)
(0.301005 0.192814 0)
(0.301222 0.156123 0)
(0.298233 0.120779 0)
(0.292583 0.0870449 0)
(0.284758 0.0550632 0)
(0.275184 0.0249004 0)
(0.264142 -0.00338032 0)
(0.252002 -0.0298948 0)
(0.239135 -0.0545502 0)
(0.225521 -0.0773693 0)
(0.00480397 0.425009 0)
(0.0280825 0.493259 0)
(0.0579302 0.442873 0)
(0.0833419 0.421002 0)
(0.107523 0.417123 0)
(0.132782 0.410546 0)
(0.158764 0.396105 0)
(0.183856 0.375393 0)
(0.206604 0.350268 0)
(0.226094 0.321777 0)
(0.24184 0.290709 0)
(0.253667 0.257906 0)
(0.261642 0.224213 0)
(0.266011 0.190375 0)
(0.267133 0.156974 0)
(0.26542 0.124433 0)
(0.261288 0.0930383 0)
(0.255134 0.0629755 0)
(0.247314 0.0343556 0)
(0.238134 0.00723936 0)
(0.2279 -0.018271 0)
(0.21694 -0.0422424 0)
(0.205361 -0.0646618 0)
(0.00551865 0.409561 0)
(0.0274659 0.466066 0)
(0.054141 0.417179 0)
(0.076576 0.398016 0)
(0.0976601 0.394107 0)
(0.119405 0.386677 0)
(0.141485 0.372427 0)
(0.162635 0.35327 0)
(0.181835 0.330688 0)
(0.198461 0.305332 0)
(0.212141 0.277704 0)
(0.222693 0.248421 0)
(0.23011 0.218145 0)
(0.234525 0.187482 0)
(0.236173 0.156931 0)
(0.235351 0.126878 0)
(0.232376 0.0976071 0)
(0.227566 0.0693203 0)
(0.221222 0.0421553 0)
(0.213626 0.0162109 0)
(0.205048 -0.00842896 0)
(0.195784 -0.0318002 0)
(0.185977 -0.0538908 0)
(0.00603945 0.394145 0)
(0.026321 0.441448 0)
(0.0496542 0.39447 0)
(0.069331 0.37791 0)
(0.0877262 0.374104 0)
(0.106548 0.366182 0)
(0.125442 0.352325 0)
(0.143384 0.33456 0)
(0.159671 0.31405 0)
(0.17388 0.291189 0)
(0.185727 0.266307 0)
(0.19505 0.239874 0)
(0.201806 0.212415 0)
(0.206061 0.184421 0)
(0.207972 0.156316 0)
(0.207747 0.128441 0)
(0.205626 0.101064 0)
(0.20186 0.0743885 0)
(0.196694 0.0485601 0)
(0.19038 0.0236878 0)
(0.183093 -0.000153961 0)
(0.175129 -0.0229456 0)
(0.166634 -0.0447193 0)
(0.0064213 0.379027 0)
(0.0249091 0.41958 0)
(0.0449032 0.374699 0)
(0.0620272 0.360416 0)
(0.0780091 0.356693 0)
(0.0943174 0.348521 0)
(0.11052 0.335187 0)
(0.125769 0.318678 0)
(0.139603 0.299889 0)
(0.151733 0.279046 0)
(0.161943 0.256385 0)
(0.170094 0.232279 0)
(0.176129 0.207149 0)
(0.180076 0.181398 0)
(0.182031 0.155383 0)
(0.18214 0.129404 0)
(0.180572 0.103711 0)
(0.177514 0.0784973 0)
(0.173151 0.0539104 0)
(0.167673 0.0300578 0)
(0.161241 0.00699907 0)
(0.154104 -0.0151793 0)
(0.14633 -0.0365609 0)
(0.00665955 0.364354 0)
(0.0233332 0.400378 0)
(0.0401505 0.357742 0)
(0.0548873 0.34531 0)
(0.0686268 0.34157 0)
(0.0827004 0.333305 0)
(0.0965404 0.320564 0)
(0.109452 0.305188 0)
(0.121152 0.287842 0)
(0.13144 0.268653 0)
(0.140148 0.247808 0)
(0.147159 0.225618 0)
(0.15241 0.202426 0)
(0.155902 0.178568 0)
(0.157688 0.154349 0)
(0.157858 0.130036 0)
(0.156524 0.105858 0)
(0.153813 0.0819995 0)
(0.149854 0.0586051 0)
(0.144788 0.0357806 0)
(0.138741 0.0135928 0)
(0.131942 -0.00788586 0)
(0.124422 -0.0287945 0)
(0.00673072 0.350447 0)
(0.0216524 0.383808 0)
(0.0355841 0.343546 0)
(0.0480421 0.332515 0)
(0.0596383 0.328626 0)
(0.0716662 0.320372 0)
(0.0833581 0.308249 0)
(0.0941701 0.293885 0)
(0.103952 0.277754 0)
(0.112549 0.25993 0)
(0.119831 0.240586 0)
(0.125697 0.219985 0)
(0.13008 0.198419 0)
(0.132963 0.176173 0)
(0.134366 0.153513 0)
(0.134334 0.130681 0)
(0.132935 0.107889 0)
(0.130247 0.0853102 0)
(0.126363 0.0630806 0)
(0.121391 0.0412944 0)
(0.115455 0.0200057 0)
(0.108705 -0.000737387 0)
(0.101223 -0.0210954 0)
(0.00656386 0.336923 0)
(0.0197022 0.369069 0)
(0.0310393 0.331626 0)
(0.0412851 0.321664 0)
(0.050764 0.317478 0)
(0.0608173 0.309271 0)
(0.0704303 0.297763 0)
(0.0792507 0.284307 0)
(0.0872032 0.269215 0)
(0.094154 0.252547 0)
(0.100006 0.234475 0)
(0.104669 0.215231 0)
(0.108077 0.195064 0)
(0.110206 0.174226 0)
(0.111054 0.152955 0)
(0.11064 0.131469 0)
(0.109003 0.109964 0)
(0.106196 0.088599 0)
(0.102292 0.0674895 0)
(0.0973846 0.0467062 0)
(0.0915935 0.0262734 0)
(0.0850866 0.00618787 0)
(0.0779832 -0.0136485 0)
(0.00635633 0.326423 0)
(0.018108 0.358168 0)
(0.0273161 0.323123 0)
(0.0355132 0.313811 0)
(0.0431279 0.309303 0)
(0.0514957 0.301205 0)