/*--------------------------------*- C++ -*----------------------------------*\
| =========                 |                                                 |
| \\      /  F ield         | OpenFOAM: The Open Source CFD Toolbox           |
|  \\    /   O peration     | Version:  5.x                                   |
|   \\  /    A nd           | Web:      www.OpenFOAM.org                      |
|    \\/     M anipulation  |                                                 |
\*---------------------------------------------------------------------------*/
FoamFile
{
    version     2.0;
    format      ascii;
    class       volScalarField;
    location    "0.35";
    object      alpha.water;
}
// * * * * * * * * * * * * * * * * * * * * * * * * * * * * * * * * * * * * * //

dimensions      [0 0 0 0 0 0 0];

internalField   nonuniform List<scalar> 
2268
(
1
1
1
1
1
1
1
1
1
1
1
1
1
1
1
1
1
1
1
0.99634
0.820321
0.77144
0.966652
0.999999
1
1
1
1
1
1
1
1
1
1
1
1
1
1
1
1
1
1
1
0.945077
0.902611
1
1
1
1
1
1
1
1
1
1
1
1
1
1
1
1
1
1
1
1
1
0.999999
0.999996
0.997389
1
1
1
1
1
1
1
1
1
1
1
1
1
1
1
1
1
1
1
1
1
1
0.994772
1
1
1
1
1
1
1
1
1
1
1
1
1
1
1
1
1
1
1
1
1
1
0.996625
1
1
1
1
1
1
1
1
1
1
1
1
1
1
1
1
1
1
1
1
1
1
0.999679
1
1
1
1
1
1
1
1
1
1
1
1
1
1
1
1
1
1
1
1
1
1
1
1
1
1
1
1
1
1
1
1
1
1
1
1
1
1
1
1
1
1
1
1
1
1
6.96538e-13
1.72044e-11
9.72782e-12
1.25017e-12
2.66545e-14
2.38601e-16
5.95153e-18
2.40441e-19
1.1858e-20
6.50348e-22
1.3438e-23
3.67e-27
6.88487e-26
1.13009e-28
1.39351e-29
6.65e-31
3.29128e-32
3.87869e-33
5.75508e-33
1.76117e-14
1.40392e-12
2.73184e-11
9.68913e-12
4.31886e-13
5.64501e-15
1.78164e-16
1.11905e-17
7.64203e-19
7.74481e-20
2.93778e-21
2.25284e-23
2.43304e-23
3.18903e-24
5.0158e-25
2.46652e-26
1.26926e-27
1.53352e-28
2.01409e-30
6.26438e-17
2.82071e-13
9.99545e-12
5.26643e-12
1.24669e-12
8.65763e-14
1.05764e-14
1.18104e-15
1.35956e-16
6.26905e-17
7.6958e-18
1.16149e-19
4.65775e-21
1.17169e-21
1.23856e-22
5.3617e-24
2.71875e-25
3.43173e-26
2.86942e-28
-2.27514e-32
6.68145e-17
1.58236e-12
9.02748e-11
5.28915e-13
5.31388e-13
1.23925e-13
1.84815e-14
1.09066e-14
7.58938e-15
1.17421e-15
2.05014e-17
5.73616e-19
2.13027e-19
1.49672e-20
5.99258e-22
3.98687e-23
3.64388e-24
2.57214e-26
2.94794e-06
8.44674e-05
1.78117e-12
1.0615e-08
2.37765e-10
5.04202e-14
5.03478e-14
4.3595e-14
8.25348e-14
6.26979e-14
1.60276e-14
4.17483e-16
5.93216e-17
2.23164e-17
1.1798e-18
4.94369e-20
3.37339e-21
2.70583e-22
1.6904e-24
8.18195e-05
0.0010585
6.95912e-08
1.10045e-11
4.93837e-11
5.3721e-13
4.93068e-14
4.48594e-14
9.85093e-14
1.093e-13
6.60756e-14
6.61751e-15
4.14024e-15
1.53275e-15
8.44183e-17
4.48632e-18
2.39538e-19
3.25129e-20
2.13377e-22
0.000145062
0.00097362
0.000463294
9.13453e-12
9.14275e-12
3.86409e-13
4.43054e-14
5.58478e-14
5.44527e-13
1.19702e-12
1.0498e-12
4.32525e-13
1.03086e-13
5.8438e-14
7.81673e-15
3.07995e-16
1.33796e-17
7.74457e-19
3.93403e-21
4.45871e-05
0.000112553
0.000227383
1.09529e-11
3.30544e-07
4.24703e-13
4.43054e-14
4.85555e-14
2.67132e-12
1.59818e-12
2.57826e-12
1.29907e-11
7.03443e-13
9.83019e-13
9.03081e-14
2.99557e-15
1.10814e-16
1.14178e-18
1.77573e-34
1
1
1
1
1
1
1
1
1
1
1
1
1
1
1
1
1
1
1
1
1
1
1
1
1
0.999999
0.999999
0.999999
0.999999
1
1
1
1
1
1
1
1
1
1
1
1
1
1
1
1
1
1
0.999996
0.999965
0.999962
0.999968
0.999971
0.999972
0.999972
0.999972
0.999971
0.999973
0.99998
0.999981
0.999988
0.999976
0.99999
1
1
1
1
1
1
1
1
0.986867
0.903592
0.899724
0.896616
0.880367
0.857946
0.832696
0.802305
0.765925
0.725392
0.684911
0.647563
0.616421
0.604546
0.62338
0.669714
0.744938
0.841356
0.960509
1
1
1
0.853357
0.44736
0.19286
0.192154
0.183922
0.155948
0.1274
0.102161
0.0772093
0.0524168
0.0297098
0.0109669
3.3057e-10
2.86829e-10
1.55702e-07
6.19639e-07
0.00333764
0.0224318
0.0676152
0.153421
0.314217
0.550221
0.779947
0.089909
-4.27209e-35
1.7589e-18
8.33309e-17
6.21165e-15
2.02161e-13
7.41474e-13
1.09088e-12
1.66111e-12
2.33307e-12
2.42555e-12
1.8837e-10
2.86825e-10
2.86829e-10
2.86149e-10
1.55686e-07
3.35791e-06
1.02685e-05
7.32342e-05
0.000306779
0.000401475
0.0106784
0.0711692
-7.48374e-20
-1.0936e-35
2.63163e-20
1.78526e-18
8.33309e-17
2.83075e-14
1.12101e-11
4.48955e-11
3.73497e-11
2.42554e-12
2.54263e-08
2.47343e-08
4.44483e-09
2.86826e-10
6.63108e-06
0.000236021
0.000444638
0.00060098
0.000455267
0.000445243
0.000260283
6.76893e-05
9.9878e-05
-9.03627e-20
1.49513e-21
6.75651e-17
4.8627e-15
4.76626e-13
1.54901e-11
1.07431e-10
1.92858e-10
1.25919e-10
2.50275e-12
2.02524e-07
2.09118e-07
1.54107e-08
3.4143e-10
0.000351013
0.00101505
0.00101516
0.00101505
0.00101525
0.00101007
0.000316672
4.07131e-05
4.10713e-05
-1.39955e-19
4.06876e-19
1.19891e-16
1.12566e-14
1.6112e-12
3.95148e-11
1.94058e-10
2.44765e-10
1.49945e-10
5.05602e-12
2.11897e-07
2.11903e-07
1.58898e-08
2.33342e-09
0.0005484
0.00100064
0.00101505
0.00101525
0.000570395
6.56929e-05
4.51665e-05
3.96073e-05
3.96386e-05
-1.40073e-19
4.83285e-19
1.16888e-16
1.22744e-14
2.05533e-12
4.53652e-11
2.08636e-10
2.42891e-10
1.27086e-10
5.23795e-12
2.03344e-07
1.54234e-07
4.64287e-08
7.30176e-06
1.01044e-10
0.000160007
0.000598598
0.000661087
0.000213638
0.000212436
5.73039e-05
3.96387e-05
3.96038e-05
-8.75233e-20
3.71479e-19
7.28803e-17
1.02908e-14
2.0544e-12
3.72114e-11
1.64457e-10
1.79519e-10
7.73845e-11
5.47959e-12
2.10527e-08
7.58222e-11
2.57341e-07
2.22236e-08
1.45948e-12
1.51159e-12
-2.44291e-23
7.70731e-05
0.000672169
0.00067399
0.000673968
0.000238314
0.000331069
-4.54327e-20
1.4752e-19
2.79834e-17
5.16858e-15
1.41156e-12
1.66355e-11
7.57134e-11
7.13385e-11
3.60546e-11
1.14184e-10
1.16066e-11
1.16066e-11
2.02767e-07
7.55756e-08
-4.80135e-30
2.77952e-36
-1.89861e-12
0
0.000216477
0.000429703
0.000556601
0.000601672
0.000601583
-2.19333e-20
2.97201e-20
8.84185e-18
1.63054e-15
5.32671e-13
5.45222e-12
2.13045e-11
2.05302e-11
1.44887e-11
1.42196e-10
6.66183e-11
1.30059e-11
0
-3.20447e-13
-1.13031e-11
-1.5961e-11
-1.07947e-11
-4.42544e-12
-9.4602e-13
-2.91218e-30
1.20717e-14
5.81627e-14
1.14309e-05
-1.16428e-20
-5.44346e-22
3.35954e-18
3.63154e-16
1.29177e-13
1.38473e-12
4.32096e-12
4.15133e-12
4.09882e-12
7.16898e-11
5.83855e-11
2.03609e-11
3.09414e-12
-8.28723e-13
-1.05916e-11
-1.30217e-11
-8.90464e-12
-4.07259e-12
-9.9094e-13
1.1782e-12
3.35678e-12
5.48849e-12
5.48756e-12
-8.10852e-21
-6.49241e-21
1.75949e-18
6.17086e-17
2.27815e-14
2.46136e-13
7.25422e-13
7.39605e-13
9.22957e-13
2.04321e-12
6.57808e-12
1.15299e-11
1.11361e-11
3.57447e-12
-3.14778e-12
-5.39475e-12
-4.09055e-12
-2.01956e-12
-4.0281e-13
1.38698e-12
4.58942e-12
9.20474e-12
1.58205e-11
-6.56207e-21
-9.57503e-21
9.08692e-19
8.87053e-18
2.98799e-15
3.18567e-14
9.27562e-14
1.26036e-13
2.13925e-13
6.22972e-13
2.76066e-12
5.31395e-12
4.58657e-12
2.64126e-12
1.81102e-13
-7.89305e-13
-7.65645e-13
-3.93409e-13
-3.59887e-15
3.24604e-13
7.56665e-13
1.6362e-12
4.27662e-12
-5.02413e-21
-9.99486e-21
3.12098e-19
1.29283e-18
2.85352e-16
2.99634e-15
9.11809e-15
2.15223e-14
5.63323e-14
1.30936e-13
4.86847e-13
7.3643e-13
6.26996e-13
4.30645e-13
3.15896e-13
8.11272e-14
1.66816e-14
1.80457e-14
1.57904e-14
2.99148e-14
1.34608e-13
4.97938e-13
2.0798e-12
-3.29632e-21
-8.31682e-21
5.68158e-20
1.99921e-19
1.90321e-17
1.95853e-16
8.88218e-16
4.37059e-15
1.5701e-14
3.50151e-14
7.06718e-14
7.62266e-14
6.45725e-14
3.57242e-14
1.22037e-14
2.6795e-15
3.35099e-16
4.38075e-16
1.03626e-15
7.55864e-15
4.87009e-14
2.20581e-13
1.27665e-12
-1.77565e-21
-5.53459e-21
3.42315e-21
2.49931e-20
8.12271e-19
9.21743e-18
1.1562e-16
9.63575e-16
3.99495e-15
9.46529e-15
1.38088e-14
1.36406e-14
1.11559e-14
6.05366e-15
1.91158e-15
3.34117e-16
4.74857e-17
5.48401e-17
2.5746e-16
2.32903e-15
1.67375e-14
1.01848e-13
8.29126e-13
-7.57582e-22
-2.84669e-21
-1.35182e-21
1.50514e-21
1.7306e-20
4.9421e-19
1.70425e-17
1.69972e-16
7.92172e-16
1.99991e-15
2.91313e-15
2.84236e-15
2.23534e-15
1.11901e-15
3.01676e-16
4.13907e-17
7.05977e-18
1.01408e-17
6.59704e-17
6.68215e-16
5.54214e-15
5.15923e-14
5.59781e-13
-2.4389e-22
-1.06476e-21
-1.28816e-21
-1.64674e-22
8.68989e-24
4.13561e-20
1.72795e-18
2.11463e-17
1.14642e-16
3.0848e-16
4.98787e-16
4.96187e-16
4.02096e-16
2.07359e-16
5.19839e-17
4.47287e-18
8.82935e-19
1.77942e-18
1.59437e-17
1.70948e-16
1.79708e-15
2.78174e-14
3.73789e-13
-5.50713e-23
-2.626e-22
-4.80702e-22
-1.45053e-22
-2.79289e-23
2.05192e-21
9.52024e-20
1.89458e-18
1.19304e-17
3.42009e-17
5.95457e-17
6.05625e-17
5.12733e-17
2.83161e-17
7.26659e-18
5.39862e-19
1.24116e-19
3.41479e-19
3.62701e-18
4.03477e-17
5.91249e-16
1.50598e-14
2.46204e-13
-7.76806e-24
-3.6707e-23
-7.23975e-23
-2.11003e-23
-4.25479e-24
-3.63933e-26
3.2174e-21
1.25202e-19
8.6775e-19
2.56923e-18
4.56835e-18
4.7662e-18
4.18743e-18
2.472e-18
6.7294e-19
5.24517e-20
1.97355e-20
6.84618e-20
7.96536e-19
9.34182e-18
1.95346e-16
7.96589e-15
1.591e-13
-5.48995e-25
-2.5805e-24
-5.26342e-24
-1.47371e-24
-2.8514e-25
-1.72918e-26
1.13759e-22
5.46724e-21
3.99082e-20
1.21959e-19
2.17466e-19
2.36656e-19
2.12516e-19
1.30993e-19
3.74378e-20
3.35961e-21
2.4185e-21
1.284e-20
1.76196e-19
2.27894e-18
6.33187e-17
4.12486e-15
9.80759e-14
-1.77393e-43
-2.03821e-41
-4.58903e-40
1.56208e-34
1.0738e-29
3.39456e-29
4.06407e-25
9.34195e-23
8.96994e-22
3.09595e-21
5.82652e-21
6.89538e-21
6.14657e-21
3.67119e-21
9.69376e-22
1.34812e-22
2.13644e-22
2.43191e-21
4.17804e-20
6.20028e-19
1.99236e-17
2.03249e-15
5.57184e-14
-1.13714e-43
-1.26524e-41
-3.05607e-40
6.44546e-39
2.41029e-34
3.67969e-32
2.15545e-28
2.82938e-25
3.85321e-24
1.53802e-23
3.15397e-23
3.3463e-23
2.88625e-23
1.84218e-23
7.19736e-24
5.81461e-24
2.40479e-23
4.9701e-22
1.0875e-20
1.86658e-19
6.0625e-18
9.19342e-16
2.8783e-14
-5.45042e-44
-5.90778e-42
-1.50915e-40
-1.19761e-41
1.43835e-38
6.66404e-36
3.29257e-31
1.01203e-27
2.12048e-26
1.13169e-25
2.99007e-25
5.04314e-25
5.23068e-25
4.77879e-25
2.87217e-25
3.20825e-25
3.84269e-24
1.13101e-22
2.96134e-21
5.75872e-20
1.77336e-18
3.79675e-16
1.36553e-14
-1.73815e-44
-1.84634e-42
-4.93579e-41
-1.10533e-41
7.90916e-41
8.52764e-39
1.08104e-36
5.20294e-33
1.51291e-29
3.74572e-28
2.06639e-27
5.50421e-27
6.95019e-27
6.22735e-27
4.24946e-27
2.09539e-26
7.64951e-25
2.66496e-23
7.66817e-22
1.67702e-20
4.99031e-19
1.45552e-16
5.98194e-15
-2.76834e-45
-2.89951e-43
-8.11248e-42
-1.77264e-42
-2.15699e-43
8.94469e-43
1.10533e-40
5.7096e-37
1.02764e-32
9.64079e-31
7.21603e-30
2.24038e-29
3.03241e-29
2.53784e-29
8.52019e-29
3.60797e-27
1.53504e-25
5.73505e-24
1.77636e-22
4.45862e-21
1.36086e-19
5.23946e-17
2.39317e-15
-2.0906e-55
-2.14038e-53
-1.32541e-52
2.72198e-49
2.15133e-46
1.9065e-45
8.39966e-44
3.51478e-42
4.08872e-38
1.77939e-34
5.26663e-33
3.00505e-32
4.48412e-32
2.1168e-31
1.15747e-29
5.89952e-28
2.63631e-26
1.07425e-24
3.68493e-23
1.07949e-21
3.55327e-20
1.75152e-17
8.56965e-16
-1.26661e-55
-1.29457e-53
-8.49693e-53
-2.18728e-54
1.27455e-48
1.13685e-46
4.3925e-45
1.81953e-43
9.26576e-42
1.17909e-39
2.96944e-37
5.75794e-36
3.06838e-34
2.41201e-32
1.50827e-30
7.99645e-29
3.89346e-27
1.77658e-25
6.86725e-24
2.33693e-22
8.50252e-21
5.25769e-18
2.69268e-16
-5.77322e-56
-5.91368e-54
-4.10947e-53
-5.91284e-54
5.63353e-51
6.74416e-49
6.40686e-47
6.1534e-45
7.23801e-43
4.83456e-41
4.2079e-39
3.73263e-37
3.57709e-35
2.39488e-33
1.52107e-31
9.17818e-30
5.04094e-28
2.54135e-26
1.11396e-24
4.40866e-23
1.77293e-21
1.35818e-18
7.30788e-17
-1.76206e-56
-1.81609e-54
-1.336e-53
-2.04591e-54
6.84826e-53
1.14169e-50
1.40739e-48
1.96129e-46
2.36495e-44
2.85196e-42
3.19523e-40
2.74209e-38
2.40522e-36
1.79219e-34
1.33783e-32
8.89917e-31
5.47008e-29
3.04494e-27
1.55107e-25
7.22724e-24
3.09371e-22
2.90909e-19
1.68607e-17
-2.70478e-57
-2.81634e-55
-2.19213e-54
-3.14392e-55
8.55575e-55
1.98372e-52
3.45962e-50
5.9469e-48
8.90962e-46
1.11203e-43
1.34107e-41
1.31751e-39
1.34869e-37
1.12044e-35
9.36237e-34
7.03799e-32
4.8515e-30
3.08308e-28
1.84466e-26
1.00896e-24
4.30329e-23
5.01877e-20
3.22704e-18
-9.03269e-75
-4.72042e-72
1.94166e-66
2.47996e-58
9.38115e-57
2.87661e-54
6.87761e-52
1.29833e-49
2.25182e-47
3.10897e-45
4.29488e-43
4.77225e-41
5.57011e-39
5.33876e-37
4.82212e-35
4.38065e-33
3.37576e-31
2.4737e-29
1.72913e-27
1.12476e-25
4.49298e-24
6.7932e-21
4.94233e-19
-5.76905e-75
-3.11041e-72
8.60005e-69
1.73e-62
8.12618e-59
2.73335e-56
8.02436e-54
1.79117e-51
3.39427e-49
5.92253e-47
8.74471e-45
1.18877e-42
1.58295e-40
1.72713e-38
1.81765e-36
1.94253e-34
1.835e-32
1.49851e-30
1.23388e-28
9.74166e-27
3.42295e-25
7.10357e-22
5.7893e-20
-2.78956e-75
-1.56439e-72
-1.16863e-69
3.97456e-65
2.36239e-61
1.2626e-58
3.72852e-56
1.1135e-53
2.55814e-51
5.6721e-49
9.63756e-47
1.83429e-44
2.68619e-42
3.51235e-40
4.75032e-38
5.94884e-36
6.5862e-34
6.51586e-32
6.79144e-30
6.06235e-28
1.9114e-26
5.97681e-23
4.91211e-21
-9.09011e-76
-5.34872e-73
-4.92948e-70
2.81799e-68
1.3556e-64
8.40026e-62
4.38457e-59
1.47383e-56
5.95556e-54
1.5226e-51
4.87485e-49
9.86926e-47
1.92517e-44
4.24102e-42
6.69562e-40
9.66694e-38
1.304e-35
1.66186e-33
2.63387e-31
2.04445e-29
8.50752e-28
4.25649e-24
2.80301e-22
-1.49981e-76
-9.33926e-74
-8.37998e-71
-3.33483e-72
2.94182e-69
4.57792e-66
2.48788e-63
1.702e-60
9.79259e-58
4.05952e-55
1.56395e-52
6.7547e-50
2.06505e-47
5.83522e-45
2.09439e-42
5.03219e-40
1.04354e-37
1.94469e-35
3.82207e-33
2.6314e-31
1.86062e-29
1.62874e-25
9.04517e-24
7.01934e-98
0
0
3.67272e-80
3.66793e-76
1.52102e-72
1.91732e-69
2.21855e-66
2.30057e-63
1.51978e-60
1.32191e-57
7.44635e-55
3.96968e-52
2.96263e-49
1.23441e-46
5.31169e-44
2.05862e-41
7.04117e-39
1.84447e-36
2.48591e-34
8.67144e-32
2.33541e-27
1.1936e-25
-4.09702e-103
-7.03372e-105
-5.90897e-107
2.97774e-94
4.03113e-89
0
8.21402e-82
2.3723e-78
6.38598e-75
1.14701e-71
2.75817e-68
4.23962e-65
6.22745e-62
1.18681e-58
1.41434e-55
1.64112e-52
1.72275e-49
1.5894e-46
1.11845e-43
3.96574e-41
1.91237e-34
7.23352e-30
3.04761e-28
-6.3492e-104
-5.6784e-106
-1.97388e-108
-6.49815e-111
-2.09328e-113
-4.71991e-104
-7.60945e-106
4.48895e-94
0
8.90816e-86
0
0
5.32143e-76
8.9078e-73
1.14921e-69
1.0393e-66
1.32973e-63
1.23923e-60
0
2.21319e-55
1.4487e-52
2.71781e-42
1.38168e-42
1
1
0.828044
0.102012
1
1
0.995232
0.843063
1
1
0.999997
0.999848
1
1
0.999999
0.999992
0.915386
0.978972
0.999992
0.999844
0.149341
0.215322
0.30585
0.407065
0.000139277
0.000188974
0.000242281
0.000606347
4.2746e-05
4.59374e-05
4.83926e-05
5.04826e-05
3.97778e-05
4.00151e-05
4.03325e-05
4.07088e-05
3.96384e-05
3.97778e-05
4.00151e-05
4.03325e-05
0.00103134
0.00115055
0.00117334
0.00119252
0.00046192
0.000267095
0.000220704
0.000230494
8.47191e-09
1.04496e-08
1.25155e-08
1.54762e-08
-1.68381e-11
-3.98185e-12
-1.48163e-10
6.27551e-11
8.16209e-12
1.00081e-11
1.35463e-11
2.51249e-11
7.65201e-12
1.11419e-11
1.7018e-11
2.4692e-11
4.331e-12
7.1437e-12
1.38549e-11
1.98415e-11
2.90586e-12
5.29245e-12
1.34995e-11
1.74095e-11
2.14645e-12
3.63922e-12
8.49284e-12
1.24717e-11
1.52046e-12
2.78341e-12
5.339e-12
9.25069e-12
1.05499e-12
1.95983e-12
3.6556e-12
7.67791e-12
7.17197e-13
1.31699e-12
2.57456e-12
5.57339e-12
4.72796e-13
8.67088e-13
1.82103e-12
3.13899e-12
2.92588e-13
5.46495e-13
1.16166e-12
1.81836e-12
1.66111e-13
3.13556e-13
7.223e-13
1.10361e-12
8.58894e-14
1.63864e-13
4.29535e-13
8.63424e-13
4.05993e-14
8.0723e-14
2.58232e-13
8.06756e-13
1.75951e-14
3.809e-14
1.62654e-13
6.39813e-13
6.91701e-15
1.71394e-14
1.02673e-13
4.30136e-13
2.41689e-15
7.28731e-15
5.88511e-14
2.68326e-13
7.37553e-16
2.89349e-15
3.00825e-14
1.45443e-13
1.94409e-16
1.05631e-15
1.29835e-14
6.62285e-14
4.37843e-17
3.41267e-16
4.73067e-15
2.4242e-14
8.25284e-18
9.33374e-17
1.37696e-15
6.60935e-15
1.25361e-18
2.02791e-17
3.05163e-16
1.27005e-15
1.43905e-19
3.15302e-18
4.76477e-17
1.64261e-16
1.11434e-20
2.87489e-19
4.51817e-18
1.47492e-17
4.77528e-22
9.64598e-21
1.95265e-19
1.15406e-18
1.15885e-23
1.13103e-22
4.64729e-21
7.31702e-20
6.71825e-26
1.73859e-24
1.35613e-22
3.09493e-21
5.81712e-29
4.96264e-29
7.4227e-27
3.47105e-25
3.73764e-44
8.97385e-63
-5.88509e-44
-3.48786e-45
0.000112553
0.0448719
5.18548e-05
4.42627e-09
2.07073e-09
2.3875e-13
4.85556e-14
1.67682e-13
5.40201e-10
4.677e-10
8.06119e-11
6.49695e-10
3.94841e-11
4.22566e-11
3.359e-12
1.2514e-13
4.65585e-15
4.28661e-16
1.934e-18
0.690629
0.490155
9.7943e-05
0.0233001
4.29976e-09
1.21307e-10
2.56802e-09
5.0149e-08
6.58081e-08
6.49282e-09
1.1415e-07
2.80725e-08
8.2943e-10
1.03419e-09
8.32582e-11
2.49765e-12
1.0771e-13
1.39195e-14
2.17304e-16
0.999472
0.997986
0.515009
0.709842
0.633746
0.124457
0.0298185
8.86465e-06
1.78958e-07
1.57524e-06
5.52449e-06
1.78039e-06
4.44403e-08
5.01746e-08
3.79522e-09
1.07896e-10
3.61423e-12
4.41274e-14
3.59547e-15
0.999815
0.999685
0.99877
0.998885
0.998652
0.88972
0.855208
0.837327
0.446332
0.0660339
1.05788e-05
5.18384e-05
1.79659e-06
1.9433e-06
1.19291e-07
3.59764e-09
9.87377e-11
-9.61298e-13
-3.10499e-15
0.999688
0.999676
0.999672
0.999228
0.998789
0.998652
0.998162
0.998029
0.987044
0.930226
0.777259
0.229517
0.00116187
5.44642e-05
3.07492e-06
9.97956e-08
3.50571e-09
2.99419e-11
-1.87528e-12
0.567147
0.727018
0.813053
0.877427
0.96692
0.998162
0.998029
0.998029
0.998029
0.997695
0.996312
0.970232
0.609256
0.0504449
6.20023e-05
2.3612e-06
9.99302e-08
2.52805e-10
-9.35612e-13
0.0114046
0.0465987
0.0919448
0.143742
0.210236
0.298224
0.377697
0.448449
0.619638
0.959829
0.992829
0.989568
0.988739
0.682442
0.0725181
4.44012e-05
2.2591e-06
1.4456e-08
-3.36851e-10
5.70008e-05
9.25043e-05
0.000150704
0.000235342
0.000582639
0.00130978
0.00170108
0.00208882
0.022035
0.113455
0.293425
0.770725
0.983745
0.972215
0.607598
0.0528392
4.00922e-05
1.86509e-07
-4.69728e-11
4.13611e-05
5.83191e-05
9.25158e-05
0.000159817
0.000633026
0.00162419
0.00160382
0.000632506
2.72034e-05
8.7589e-05
0.000356814
0.0722815
0.536905
0.963195
0.936193
0.4828
0.0221919
3.88923e-06
-4.83122e-08
4.08948e-05
0.000318744
0.00132064
0.00138239
0.00137506
0.000724618
8.90876e-05
3.64428e-05
1.10957e-06
4.74582e-06
2.19022e-05
0.00013214
0.0132022
0.521095
0.920892
0.832282
0.257483
4.77121e-05
-9.39441e-10
0.00120391
0.00120023
0.000730539
0.000128647
6.38553e-05
1.37212e-06
3.07172e-08
6.51257e-08
1.04828e-07
3.12925e-07
1.7095e-06
1.00457e-05
3.53205e-05
0.0460486
0.689873
0.82236
0.561731
0.0448075
4.69425e-06
0.000214858
0.000146138
1.04348e-05
3.72836e-08
1.05215e-08
2.21083e-09
5.93895e-10
4.74396e-08
7.09955e-08
1.0463e-07
3.25384e-07
1.20545e-06
2.3613e-06
3.99016e-07
0.311511
0.795798
0.703637
0.137078
-4.4999e-08
1.64548e-08
1.30826e-08
3.43232e-09
8.85041e-10
2.92037e-10
1.33831e-10
1.12166e-10
1.64535e-07
1.86223e-06
2.02663e-06
7.38161e-07
7.27676e-07
3.99016e-07
2.4149e-07
0.0385487
0.691653
0.704622
0.24544
-3.55344e-07
1.1592e-10
2.47458e-10
3.16968e-10
3.14374e-10
1.4963e-10
1.12166e-10
1.12166e-10
1.12166e-10
5.35125e-06
8.23689e-06
8.43774e-06
2.33037e-06
2.43445e-07
2.43445e-07
2.41652e-07
0.491466
0.704622
0.314006
0.000163478
5.52452e-11
1.6858e-10
2.91542e-10
3.46666e-10
2.96026e-10
4.50086e-10
3.23401e-10
1.49647e-10
8.20148e-09
7.75617e-06
8.56098e-06
8.59169e-06
1.65071e-06
2.43445e-07
2.85754e-07
0.292433
0.701104
0.363023
0.0030044
5.35883e-11
1.98529e-10
5.18194e-10
6.79667e-10
3.86298e-10
4.25842e-10
1.13223e-08
1.83464e-09
1.55683e-09
6.42695e-07
8.52818e-06
8.59169e-06
7.12992e-06
3.50922e-07
3.30986e-07
0.141529
0.661075
0.409525
0.0101186
7.12729e-11
6.42511e-10
1.54467e-09
1.62613e-09
8.47365e-10
4.22004e-10
4.32013e-10
3.75739e-07
2.74371e-07
2.8157e-07
3.19147e-06
8.59169e-06
8.44771e-06
1.30451e-06
2.30767e-07
0.0503102
0.622285
0.461702
0.0242399
1.03995e-10
1.15734e-09
1.79928e-09
1.83626e-09
2.14503e-09
5.18033e-10
4.30776e-10
6.82354e-07
1.49587e-06
1.32959e-06
2.0645e-06
4.64592e-06
4.30706e-06
8.35764e-07
1.79694e-07
0.00679332
0.572384
0.487691
0.0393522
8.78544e-11
8.12592e-10
1.27971e-09
1.11267e-09
5.83104e-09
7.2356e-09
4.65689e-10
2.31085e-09
1.41028e-06
2.2497e-06
2.24461e-06
1.73782e-06
5.72472e-07
2.39006e-07
1.53919e-07
1.79694e-07
0.487267
0.504238
0.0764353
1.79048e-11
4.73396e-10
8.71234e-10
7.86009e-10
6.89506e-10
9.84192e-08
1.74713e-07
1.39119e-07
3.44532e-07
1.8624e-06
2.24977e-06
1.41248e-06
1.91296e-07
1.28948e-07
1.39127e-07
1.53919e-07
0.423959
0.504238
0.118683
6.29516e-12
5.94582e-10
1.44305e-09
8.73239e-10
6.67732e-10
8.95371e-08
4.75363e-07
4.7621e-07
3.90223e-07
3.66256e-07
5.98365e-07
5.82356e-07
2.62243e-07
1.08128e-07
1.25498e-07
0.0188104
0.334534
0.497486
0.120121
5.53615e-12
1.05188e-09
1.72521e-09
1.07167e-09
6.51946e-10
1.37702e-08
4.71539e-07
4.77067e-07
4.76788e-07
3.76949e-07
2.06321e-07
2.55976e-07
1.59963e-07
9.87607e-08
1.08128e-07
0.125387
0.246978
0.292561
0.121096
7.43252e-12
8.02709e-10
1.50409e-09
7.86077e-10
6.4281e-10
1.33812e-08
3.80527e-07
4.7621e-07
4.306e-07
2.08726e-07
1.4466e-07
1.5348e-07
8.02384e-08
7.66794e-08
0.069971
0.211719
0.121643
0.0452232
0.0566052
4.5235e-11
5.22151e-10
5.11314e-10
5.95406e-10
6.11973e-10
1.05332e-07
1.13367e-07
9.76609e-08
6.67408e-08
6.33703e-08
6.23526e-08
5.16151e-08
4.31177e-08
0.00109264
0.210051
0.216308
0.0500745
0.0053361
-3.54169e-07
7.65135e-11
3.00153e-10
3.43098e-10
1.81431e-09
1.8116e-09
7.8317e-09
1.18658e-08
2.01066e-08
2.40568e-08
2.45205e-08
2.5773e-08
2.75854e-08
3.0436e-08
0.133053
0.23926
0.219756
0.0294458
0.00319049
-1.89453e-08
6.38427e-11
2.23711e-10
3.24721e-10
1.895e-09
8.76884e-10
2.98091e-08
2.34962e-08
2.1236e-08
2.23152e-08
2.48148e-08
2.75854e-08
0.00269131
0.154274
0.23944
0.239901
0.208332
0.0238138
0.00279377
-1.49411e-10
1.84499e-11
1.8252e-10
2.64589e-10
7.13594e-10
7.50689e-10
7.27477e-08
3.38646e-08
2.08387e-08
3.25627e-08
1.71463e-06
0.0371757
0.215528
0.23944
0.239901
0.239657
0.140808
0.0134227
0.00305844
-7.27057e-13
1.20622e-11
1.59849e-10
2.94597e-10
1.67779e-10
1.41911e-09
7.30648e-08
1.00556e-08
1.40816e-08
2.24756e-07
0.00732702
0.22362
0.23849
0.237779
0.237122
0.114286
0.0365408
0.00924011
0.00194978
-1.35262e-28
1.03226e-11
8.14588e-11
2.59425e-10
1.64146e-10
2.15461e-08
5.93414e-08
4.11485e-09
7.60266e-09
4.02522e-06
0.0846497
0.167324
0.14821
0.108728
0.0403139
0.00154249
0.00124516
0.0101909
6.64004e-05
-9.77166e-23
8.47167e-12
3.64946e-11
1.53675e-10
1.67036e-10
2.77594e-08
1.12304e-09
2.04631e-09
-1.09793e-08
0.0338194
0.0952637
0.0245195
0.00153316
7.7402e-05
6.89679e-05
5.21008e-05
0.000510712
0.00996054
4.49004e-05
5.4105e-28
4.9218e-12
1.90608e-11
8.40105e-11
8.45215e-11
9.58673e-09
7.0169e-10
9.93608e-10
0.00176921
0.048817
0.0405055
0.000875641
8.21591e-05
7.74909e-06
6.19806e-06
9.34591e-06
0.000377461
0.00937042
1.17148e-05
0
1.9835e-12
8.96661e-12
5.15286e-11
9.50367e-11
9.23482e-11
9.23481e-11
2.28375e-07
1.9444e-07
0.0445785
0.0205425
0.00209479
7.75452e-06
4.54531e-06
2.37486e-06
3.48564e-06
0.000248242
0.00487506
2.62584e-05
0
6.60788e-13
3.48656e-12
2.88965e-11
8.49562e-11
9.29655e-11
6.05331e-09
4.88031e-09
6.05477e-09
0.0195795
0.0714557
0.0172935
3.98813e-06
2.06144e-06
2.08312e-06
2.56862e-06
0.000148706
0.000237891
4.9174e-05
6.10169e-07
1.73707e-13
1.29007e-12
1.35281e-11
7.20438e-11
2.25468e-10
3.43641e-09
3.51568e-09
0.000948842
0.0450858
0.0714557
0.0185056
2.06144e-06
2.06144e-06
2.06144e-06
2.35551e-06
4.78736e-05
5.85877e-05
9.04012e-05
1.08258e-06
3.71696e-14
4.6415e-13
5.7712e-12
3.20541e-11
2.59579e-10
1.90331e-08
8.66784e-09
0.000127447
2.69472e-06
0.0707365
0.0538714
0.00305773
2.06144e-06
2.03077e-06
2.47756e-06
3.2263e-05
4.3859e-05
9.35666e-05
1.94853e-06
7.26223e-15
1.44394e-13
2.14446e-12
6.40055e-12
6.61615e-16
1.69867e-08
1.04271e-06
1.0408e-06
1.66152e-06
0.0575096
0.083055
0.0179139
2.03077e-06
1.88251e-06
2.38002e-06
1.83943e-05
2.15236e-05
6.87685e-05
1.90599e-06
1.29155e-15
3.35133e-14
5.23187e-13
1.13533e-13
3.35509e-17
6.32818e-16
1.23392e-06
1.33325e-05
2.69472e-06
0.0463555
0.083055
0.0182537
1.79634e-06
1.61609e-06
2.39119e-06
7.3868e-06
9.15069e-06
8.38416e-06
7.50821e-07
1.67817e-16
4.96195e-15
7.28935e-14
4.93648e-15
4.75421e-18
1.91256e-25
1.12433e-09
5.88226e-05
0.000212918
0.0246106
0.083055
0.0801464
0.00612574
1.27898e-06
1.5819e-06
2.64213e-06
3.26715e-06
3.80673e-07
3.38281e-07
1.17555e-17
4.00726e-16
5.84133e-15
6.47999e-16
3.39369e-18
-1.23258e-16
2.22646e-23
5.97443e-05
0.000239957
0.00011899
0.07444
0.0932906
0.011681
7.13322e-07
4.62953e-07
5.89323e-07
1.19201e-06
1.59849e-07
1.37686e-07
5.12348e-19
1.34918e-17
1.98196e-16
1.44008e-16
5.77632e-18
-5.53096e-16
-6.94131e-16
2.09873e-06
0.000102798
0.000102252
0.0794626
0.0932906
0.0307236
4.62935e-07
4.17904e-07
4.35344e-07
3.73253e-07
7.1483e-08
2.23362e-08
1.39296e-22
1.84466e-20
1.07586e-18
3.81479e-17
1.89855e-18
-9.50359e-16
-7.65991e-15
0
-1.56581e-21
0.000814741
0.0568738
0.0932906
0.0922366
0.00311214
4.17904e-07
3.85073e-07
1.38877e-07
5.04554e-08
1.35121e-09
-2.4135e-40
-4.82896e-42
-4.10144e-39
-6.89404e-41
-6.46212e-43
-2.11449e-16
-2.0655e-17
-1.67137e-14
-4.00731e-13
-1.7417e-12
0
0.0495295
0.0900574
0.0155544
4.17592e-07
7.56839e-07
1.06834e-07
4.48973e-08
1.2559e-09
)
;

boundaryField
{
    leftWall
    {
        type            zeroGradient;
    }
    rightWall
    {
        type            zeroGradient;
    }
    lowerWall
    {
        type            zeroGradient;
    }
    atmosphere
    {
        type            inletOutlet;
        inletValue      uniform 0;
        value           nonuniform List<scalar> 
46
(
0
0
0
0
0
0
0
0
0
0
0
0
0
0
0
0
0
0
0
0
0
0
0
0
0
0
0
0
0
0
0
0
0
0
0
0
0
0
0.0495295
0.0900574
0.0155544
4.17592e-07
7.56839e-07
1.06834e-07
4.48973e-08
1.2559e-09
)
;
    }
    defaultFaces
    {
        type            empty;
    }
}


// ************************************************************************* //
