/*--------------------------------*- C++ -*----------------------------------*\
| =========                 |                                                 |
| \\      /  F ield         | OpenFOAM: The Open Source CFD Toolbox           |
|  \\    /   O peration     | Version:  5.x                                   |
|   \\  /    A nd           | Web:      www.OpenFOAM.org                      |
|    \\/     M anipulation  |                                                 |
\*---------------------------------------------------------------------------*/
FoamFile
{
    version     2.0;
    format      ascii;
    class       surfaceScalarField;
    location    "0.35";
    object      alphaPhi10;
}
// * * * * * * * * * * * * * * * * * * * * * * * * * * * * * * * * * * * * * //

dimensions      [0 3 -1 0 0 0 0];

internalField   nonuniform List<scalar> 
4432
(
-2.22023e-06
2.22023e-06
1.6679e-07
-2.38702e-06
5.66382e-06
-5.49703e-06
1.23161e-05
-6.65233e-06
1.86357e-05
-6.31959e-06
2.39743e-05
-5.33856e-06
2.82509e-05
-4.27664e-06
3.16422e-05
-3.39124e-06
3.43766e-05
-2.73446e-06
3.66333e-05
-2.25663e-06
3.85019e-05
-1.86867e-06
3.99818e-05
-1.47988e-06
4.09705e-05
-9.88689e-07
4.12519e-05
-2.81382e-07
4.03401e-05
9.11753e-07
3.73617e-05
2.97839e-06
3.1324e-05
6.03776e-06
2.12621e-05
1.00619e-05
7.69041e-06
1.35716e-05
-5.86859e-06
1.39576e-05
-1.24886e-05
8.55901e-06
-1.51835e-05
1.28748e-06
-1.70878e-05
-2.19293e-06
4.41316e-06
3.41008e-07
-4.92096e-06
5.90725e-06
-1.10633e-05
1.25445e-05
-1.32896e-05
1.88176e-05
-1.25927e-05
2.41086e-05
-1.06296e-05
2.83585e-05
-8.52649e-06
3.17543e-05
-6.78705e-06
3.45249e-05
-5.50502e-06
3.68414e-05
-4.57314e-06
3.87851e-05
-3.81242e-06
4.03457e-05
-3.04045e-06
4.14577e-05
-2.10074e-06
4.20504e-05
-8.74004e-07
4.21383e-05
8.23842e-07
4.18691e-05
3.24754e-06
4.08295e-05
7.07744e-06
3.74891e-05
1.34023e-05
2.90142e-05
2.20465e-05
1.39572e-05
2.90146e-05
-3.80697e-06
2.75691e-05
-8.91002e-06
6.17405e-06
-2.59978e-05
-1.97326e-06
6.38642e-06
6.53237e-07
-7.54745e-06
6.27779e-06
-1.66878e-05
1.28394e-05
-1.98512e-05
1.89648e-05
-1.8718e-05
2.41039e-05
-1.57688e-05
2.82454e-05
-1.26679e-05
3.15973e-05
-1.0139e-05
3.43863e-05
-8.29405e-06
3.67679e-05
-6.95468e-06
3.88046e-05
-5.84915e-06
4.04768e-05
-4.71269e-06
4.17036e-05
-3.32751e-06
4.23456e-05
-1.51595e-06
4.22897e-05
8.79666e-07
4.14629e-05
4.07436e-06
4.01411e-05
8.39928e-06
3.89269e-05
1.46165e-05
3.69076e-05
2.40658e-05
3.06662e-05
3.5256e-05
1.84154e-05
3.98199e-05
6.27061e-06
1.83187e-05
-1.97538e-05
-1.68012e-06
8.06654e-06
1.11913e-06
-1.03467e-05
6.78633e-06
-2.2355e-05
1.32242e-05
-2.6289e-05
1.91356e-05
-2.46294e-05
2.40671e-05
-2.07003e-05
2.80733e-05
-1.66741e-05
3.13857e-05
-1.34514e-05
3.42211e-05
-1.11295e-05
3.67094e-05
-9.44295e-06
3.88867e-05
-8.02647e-06
4.07146e-05
-6.54051e-06
4.21028e-05
-4.71573e-06
4.29332e-05
-2.34638e-06
4.30655e-05
7.47413e-07
4.2391e-05
4.74887e-06
4.08949e-05
9.89531e-06
3.91003e-05
1.64111e-05
3.82068e-05
2.49594e-05
3.73225e-05
3.61402e-05
3.17365e-05
4.54059e-05
1.79633e-05
3.20918e-05
-1.80564e-06
-1.29154e-06
9.35807e-06
1.71745e-06
-1.33557e-05
7.3976e-06
-2.80352e-05
1.3656e-05
-3.25475e-05
1.92931e-05
-3.02665e-05
2.39758e-05
-2.5383e-05
2.78359e-05
-2.05342e-05
3.11244e-05
-1.67399e-05
3.40378e-05
-1.40429e-05
3.66705e-05
-1.20757e-05
3.90257e-05
-1.03816e-05
4.10431e-05
-8.55797e-06
4.26252e-05
-6.29781e-06
4.36567e-05
-3.37791e-06
4.40258e-05
3.78306e-07
4.36453e-05
5.12943e-06
4.24782e-05
1.10624e-05
4.05973e-05
1.8292e-05
3.88535e-05
2.67033e-05
3.84034e-05
3.65903e-05
3.60352e-05
4.77741e-05
2.34478e-05
4.46792e-05
2.162e-05
-8.07868e-07
1.01659e-05
2.43155e-06
-1.65951e-05
8.09628e-06
-3.36999e-05
1.41246e-05
-3.85758e-05
1.94401e-05
-3.5582e-05
2.38515e-05
-2.97944e-05
2.75723e-05
-2.4255e-05
3.08642e-05
-2.00317e-05
3.38906e-05
-1.70694e-05
3.67013e-05
-1.48864e-05
3.92625e-05
-1.29427e-05
4.14918e-05
-1.07873e-05
4.32845e-05
-8.09057e-06
4.45314e-05
-4.62472e-06
4.51335e-05
-2.23882e-07
4.50253e-05
5.23766e-06
4.41845e-05
1.19032e-05
4.262e-05
1.98564e-05
4.04092e-05
2.89141e-05
3.85739e-05
3.84256e-05
3.62744e-05
5.00736e-05
2.53771e-05
5.55765e-05
4.70059e-05
-2.65882e-07
1.04318e-05
3.23372e-06
-2.00947e-05
8.85817e-06
-3.93243e-05
1.46182e-05
-4.43359e-05
1.95904e-05
-4.05542e-05
2.37365e-05
-3.39405e-05
2.73484e-05
-2.7867e-05
3.0685e-05
-2.33683e-05
3.38646e-05
-2.0249e-05
3.68861e-05
-1.79078e-05
3.9678e-05
-1.57347e-05
4.21383e-05
-1.32476e-05
4.41564e-05
-1.01086e-05
4.56254e-05
-6.09374e-06
4.64542e-05
-1.05269e-06
4.6591e-05
5.10091e-06
4.60027e-05
1.24915e-05
4.47209e-05
2.11382e-05
4.2597e-05
3.1038e-05
3.97475e-05
4.12751e-05
3.62394e-05
5.35817e-05
2.70116e-05
6.48043e-05
7.40175e-05
3.48729e-07
1.00831e-05
4.08027e-06
-2.38263e-05
9.6189e-06
-4.4863e-05
1.5079e-05
-4.97959e-05
1.97195e-05
-4.51948e-05
2.36437e-05
-3.78647e-05
2.72021e-05
-3.14253e-05
3.06332e-05
-2.67994e-05
3.40005e-05
-2.36163e-05
3.72518e-05
-2.11591e-05
4.02848e-05
-1.87677e-05
4.29872e-05
-1.595e-05
4.52495e-05
-1.23709e-05
4.69631e-05
-7.80738e-06
4.80437e-05
-2.13326e-06
4.84391e-05
4.70551e-06
4.80817e-05
1.28489e-05
4.69925e-05
2.22274e-05
4.51004e-05
3.29301e-05
4.20279e-05
4.43476e-05
3.72827e-05
5.8327e-05
2.7681e-05
7.4406e-05
0.000101698
-1.64865e-16
6.68222e-18
-1.64971e-16
4.19396e-17
-5.12638e-17
9.64806e-17
-1.50188e-18
7.95577e-18
-1.72766e-20
2.18402e-19
-4.99002e-22
1.53815e-21
-2.19828e-23
2.63656e-23
-1.13502e-24
6.38176e-25
-6.72595e-26
9.99788e-27
-4.80399e-27
-7.26017e-28
-3.91637e-28
-3.17935e-28
-4.56555e-29
-3.45829e-28
-8.44831e-29
-1.34782e-29
-2.27387e-29
-6.16435e-29
-1.04902e-30
-2.16879e-29
-4.26251e-32
-1.00663e-30
-2.53328e-33
-4.01142e-32
-3.83856e-36
-2.53339e-33
-1.06059e-35
-7.84535e-19
2.91837e-20
-3.0773e-16
1.79063e-18
-2.14078e-16
5.6682e-16
-2.43119e-17
1.22954e-16
-4.13295e-19
1.15987e-17
-1.48282e-20
1.37313e-19
-9.98756e-22
2.93207e-21
-6.78073e-23
1.04372e-22
-1.06449e-23
2.04745e-24
-2.18136e-24
-1.41118e-24
-1.68955e-25
-6.15727e-25
-1.35631e-26
-1.42897e-25
-2.19578e-26
-7.48482e-27
-5.01146e-27
-1.83066e-26
-1.94332e-28
-5.14034e-27
-6.88227e-30
-2.06284e-28
-3.65565e-31
-7.56014e-30
-5.2439e-34
-5.20053e-31
-2.88528e-33
-6.63032e-20
4.79385e-20
-9.12152e-17
1.93905e-18
-1.6606e-16
1.47306e-16
-6.09627e-17
4.31997e-16
-5.84737e-18
3.1349e-17
-8.26599e-19
3.0055e-18
-1.01646e-19
2.54731e-19
-9.88249e-21
1.59263e-20
-5.06154e-21
5.1248e-22
-9.67471e-22
-2.851e-21
-3.91721e-23
-7.41887e-22
-2.10927e-24
-1.76479e-23
-2.98611e-24
-1.54493e-24
-6.18724e-25
-2.99141e-24
-2.20919e-26
-6.741e-25
-7.36471e-28
-2.53371e-26
-3.70854e-29
-9.27316e-28
-5.23521e-32
-7.097e-29
-3.86912e-31
-1.401e-19
1.8804e-19
-1.6378e-17
1.81488e-17
-2.0555e-15
4.59601e-16
-1.73634e-17
2.21837e-15
-2.06356e-17
5.66601e-17
-9.25764e-18
1.3913e-17
-1.24355e-18
2.07315e-18
-6.65963e-19
2.59589e-19
-4.99333e-19
4.84187e-20
-1.1105e-19
-1.48887e-19
-4.70784e-21
-4.06242e-20
-2.03399e-22
-1.60826e-21
-2.66252e-22
-1.94156e-22
-5.01104e-23
-3.37741e-22
-1.67624e-24
-5.7481e-23
-5.40507e-26
-2.05393e-24
-2.64372e-27
-8.41757e-26
-3.71391e-30
-6.17964e-27
-3.35031e-29
-1.48175e-09
1.40048e-09
-6.55083e-14
-5.2371e-09
-4.0758e-13
3.41459e-13
-7.00572e-15
3.09338e-13
-1.38372e-17
9.84702e-15
-2.49594e-18
1.85837e-18
-2.17155e-18
1.02082e-18
-4.24974e-18
4.84531e-19
-3.9854e-18
2.71017e-19
-1.37746e-18
-3.37236e-19
-2.54673e-19
-2.47332e-19
-1.47665e-20
-1.28749e-19
-1.76861e-20
-1.78497e-20
-3.01614e-21
-2.72318e-20
-9.46662e-23
-3.61118e-21
-2.94664e-24
-1.27104e-22
-1.4008e-25
-5.47693e-24
-1.96968e-28
-3.99527e-25
-2.13611e-27
-1.90091e-08
1.02914e-08
-9.77009e-12
2.21526e-10
-3.07205e-13
4.09699e-09
-7.21167e-15
7.40597e-15
-4.45796e-17
2.65363e-15
-2.60367e-18
2.33638e-17
-2.33707e-18
1.21308e-18
-4.67004e-18
5.47532e-19
-5.97532e-18
3.87202e-19
-5.38816e-18
-3.00813e-18
-1.07285e-17
-6.32411e-18
-7.96123e-19
-9.74032e-18
-9.30518e-19
-1.1393e-18
-1.44865e-19
-1.59462e-18
-4.2983e-21
-1.90166e-19
-1.28182e-22
-7.27169e-21
-6.00915e-24
-3.06086e-22
-8.41948e-27
-3.26225e-23
-2.46765e-25
-2.50411e-08
1.85833e-08
-8.17776e-09
2.70173e-08
-5.45583e-15
4.88758e-08
-3.34421e-16
4.14921e-16
-2.88756e-17
4.79023e-16
-2.24078e-18
2.15215e-17
-3.79867e-18
1.25689e-18
-1.31541e-17
2.54466e-18
-5.47182e-17
4.45576e-18
-9.0824e-17
3.84381e-17
-6.62419e-16
7.74521e-17
-3.32131e-17
-6.26207e-16
-3.90397e-17
-3.67452e-17
-5.93754e-18
-5.42691e-17
-1.6545e-19
-1.00038e-17
-4.72168e-21
-3.59296e-19
-2.08283e-22
-1.40798e-20
-2.95457e-25
-9.17148e-22
-4.85046e-24
-8.79123e-08
8.9477e-08
-1.31638e-08
-8.38993e-08
-1.53057e-11
2.96317e-08
-1.8678e-11
3.37078e-12
-1.70207e-17
2.0592e-11
-2.92573e-18
2.93943e-17
-1.64623e-17
1.32794e-17
-3.33648e-16
3.17688e-16
-1.4859e-15
1.30298e-15
-3.26398e-15
1.90801e-15
-4.31217e-14
3.92013e-14
-1.52756e-15
-4.45869e-14
-1.39644e-15
1.60522e-16
-1.68166e-16
-1.54442e-15
-4.42644e-18
-2.16761e-16
-1.22723e-19
-6.23419e-18
-5.21141e-21
-1.92759e-19
-1.11719e-23
-7.35164e-21
-1.60226e-23
2.97585e-06
7.10724e-06
1.16865e-05
-3.25369e-05
2.28893e-05
-5.60658e-05
3.33118e-05
-6.02184e-05
4.20938e-05
-5.39768e-05
4.9885e-05
-4.56559e-05
5.74741e-05
-3.90145e-05
6.51819e-05
-3.45072e-05
7.29325e-05
-3.13669e-05
8.04785e-05
-2.87051e-05
8.75546e-05
-2.58438e-05
9.39454e-05
-2.23408e-05
9.94822e-05
-1.79077e-05
0.000103969
-1.2294e-05
0.000107184
-5.34893e-06
0.000109212
2.67794e-06
0.000109572
1.24894e-05
0.000108244
2.35549e-05
0.00010524
3.59339e-05
0.000100201
4.93865e-05
9.33941e-05
6.51341e-05
8.63726e-05
8.14275e-05
0.000111847
7.62237e-05
6.81189e-06
2.9535e-07
1.70769e-05
-4.28019e-05
2.67131e-05
-6.57019e-05
3.47734e-05
-6.82785e-05
4.19368e-05
-6.11401e-05
4.91991e-05
-5.29181e-05
5.7026e-05
-4.68412e-05
6.53254e-05
-4.28065e-05
7.37467e-05
-3.97881e-05
8.19165e-05
-3.68749e-05
8.95456e-05
-3.34727e-05
9.64606e-05
-2.92558e-05
0.000102619
-2.40656e-05
0.000108147
-1.78227e-05
0.000113097
-1.0299e-05
0.000116051
-2.75478e-07
0.000118307
1.02334e-05
0.0001191
2.27621e-05
0.000118538
3.64955e-05
0.000117062
5.0863e-05
0.000115982
6.62136e-05
0.000115905
8.15051e-05
0.000105734
0.000122018
1.29496e-05
-1.26542e-05
2.70382e-05
-5.68892e-05
3.39442e-05
-7.25997e-05
3.7563e-05
-7.18883e-05
4.23777e-05
-6.59472e-05
4.94399e-05
-5.99741e-05
5.80248e-05
-5.5421e-05
6.72725e-05
-5.20498e-05
7.65882e-05
-4.91002e-05
8.55846e-05
-4.58681e-05
9.40182e-05
-4.19039e-05
0.000101701
-3.69408e-05
0.000108438
-3.08017e-05
0.000113855
-2.32397e-05
0.000117935
-1.43418e-05
0.000122382
-4.70784e-06
0.000125479
7.13657e-06
0.000126926
2.13151e-05
0.00012781
3.56107e-05
0.000128725
4.99489e-05
0.000130407
6.45308e-05
0.000132358
7.95546e-05
9.57951e-05
0.000142297
2.28915e-05
-3.55457e-05
4.19424e-05
-6.81306e-05
4.11536e-05
-4.50051e-05
3.8414e-05
-4.11912e-05
3.98966e-05
-3.98e-05
4.51553e-05
-3.64656e-05
5.1998e-05
-3.21658e-05
5.8627e-05
-2.79691e-05
6.40998e-05
-2.37906e-05
6.82011e-05
-1.95673e-05
7.12847e-05
-1.55252e-05
7.39834e-05
-1.19392e-05
7.685e-05
-1.90534e-06
8.11109e-05
-6.18415e-08
8.8209e-05
-2.06752e-09
9.95752e-05
-9.60791e-10
0.000112496
9.024e-07
0.0001258
7.02293e-06
0.000137583
1.76841e-05
0.000142906
3.55478e-05
0.000146124
6.13132e-05
0.000146333
7.9346e-05
9.0956e-05
0.000151172
2.42123e-05
-2.85372e-05
1.14881e-05
-3.59098e-06
9.41343e-06
-4.21931e-08
8.63073e-06
-4.45042e-10
7.56991e-06
-3.7487e-12
6.76819e-06
-2.44789e-14
6.30803e-06
-9.96565e-16
5.63772e-06
-3.14957e-15
4.53849e-06
-2.50137e-15
3.14653e-06
-4.18291e-16
1.69972e-06
-1.72973e-12
1.13389e-06
-1.62681e-12
6.40287e-08
-2.45572e-13
2.18716e-09
-1.22481e-14
1.06277e-10
-3.28442e-11
1.46454e-10
-2.8841e-10
1.40342e-06
-2.74259e-08
8.41304e-06
6.93662e-09
2.26218e-05
2.33485e-07
4.83452e-05
5.23773e-07
8.83501e-05
8.31759e-07
0.000127742
9.30552e-06
3.4144e-05
0.000153971
3.63363e-06
7.92971e-24
4.26419e-08
-1.76353e-22
4.48815e-10
-1.04263e-20
3.77293e-12
-4.27782e-19
2.42627e-14
-3.24795e-17
1.18769e-16
-3.53934e-16
1.05802e-17
-8.6098e-16
1.43018e-17
-3.06195e-15
9.14974e-18
-2.40724e-15
7.65303e-18
-1.84087e-16
5.07845e-15
-1.73441e-12
1.67946e-14
-1.64871e-12
1.26578e-14
-2.49911e-13
1.19052e-14
-1.99668e-14
3.43555e-11
-6.71961e-11
5.53511e-10
-8.53774e-10
2.05266e-09
-2.95966e-08
3.22223e-08
-2.46283e-08
2.7041e-07
6.8466e-09
7.1744e-07
5.08323e-08
1.32093e-06
1.27988e-07
6.42056e-06
1.46331e-07
4.56206e-07
2.5648e-05
-1.01139e-24
7.83834e-24
-7.451e-23
-1.02855e-22
-2.74616e-21
-7.76129e-21
-4.05907e-20
-3.90359e-19
1.39005e-20
-3.25557e-17
5.56484e-19
-4.13229e-16
-5.09064e-17
-4.10591e-15
-1.26103e-16
-9.92107e-15
1.56727e-17
-6.7844e-15
4.03546e-16
-1.80514e-16
2.11607e-13
-7.01936e-12
3.98744e-13
-7.67562e-12
1.08804e-13
-8.57543e-13
2.96158e-13
-2.15795e-13
3.35603e-09
-9.37204e-09
3.70073e-08
-8.61754e-08
7.2506e-08
-8.98445e-08
9.26657e-08
-7.81319e-08
8.42749e-08
-3.90642e-08
7.30366e-08
-3.1396e-09
1.10809e-07
5.75933e-09
2.47057e-07
3.05708e-09
2.41958e-08
6.66863e-07
-1.58845e-23
9.12811e-24
-4.43027e-23
-7.2176e-23
-1.56783e-21
-1.08932e-20
-1.06157e-19
-8.61828e-19
-5.16732e-18
-8.98203e-17
-5.67615e-17
-2.38725e-15
-1.58389e-16
-1.21311e-14
-9.8771e-17
-1.59745e-14
9.84286e-17
-9.72597e-15
7.76776e-16
-3.57339e-16
1.58406e-12
-1.54024e-11
1.35075e-12
-1.50731e-11
2.25057e-13
-8.78264e-13
1.00953e-11
-1.00816e-11
2.37821e-08
-5.02585e-08
6.76268e-08
-1.27854e-07
8.48512e-08
-1.04909e-07
1.15741e-07
-1.06856e-07
1.26247e-07
-4.74221e-08
1.27438e-07
-2.32708e-09
1.73535e-08
1.00706e-08
1.42857e-08
5.48591e-09
8.34515e-09
2.94943e-08
-5.86498e-24
8.09018e-24
-1.41648e-23
-5.70656e-23
-1.14772e-21
-1.09526e-20
-2.35751e-19
-9.58346e-19
-4.83456e-18
-1.4841e-16
8.83854e-17
-3.19541e-15
4.81175e-16
-1.42305e-14
8.46402e-16
-1.60145e-14
6.87322e-16
-9.42941e-15
5.39198e-16
-3.93743e-16
1.16101e-12
-1.46248e-11
1.28836e-12
-1.32598e-11
1.01025e-12
-1.52035e-12
4.76731e-10
-4.853e-10
3.21863e-08
-1.74167e-10
2.12248e-08
-1.01544e-07
2.12793e-08
-1.02797e-07
2.40392e-08
-1.07471e-07
4.60319e-09
-2.74062e-08
1.2877e-09
-4.27103e-09
4.55082e-09
2.04115e-09
5.64634e-09
4.06824e-09
6.3164e-09
7.33167e-09
-9.2526e-25
4.92387e-24
-4.98149e-24
-4.40845e-23
-4.60478e-22
-8.17437e-21
-7.55925e-20
-9.1698e-19
5.85053e-18
-1.52807e-16
2.7235e-16
-3.12286e-15
1.23287e-15
-1.36673e-14
1.65997e-15
-1.4979e-14
1.02323e-15
-6.74565e-15
1.31579e-15
-6.00827e-16
1.53536e-12
-9.99521e-12
1.7046e-12
-1.0207e-12
6.08657e-13
-1.91389e-11
1.80133e-10
-1.53966e-12
6.39531e-12
-4.66531e-13
8.11927e-10
-4.29682e-15
-6.58362e-09
-8.28002e-10
-1.07013e-08
-5.37492e-08
-1.06236e-08
-3.73932e-08
-2.22324e-09
-2.31119e-08
1.93232e-10
-1.39925e-09
1.46886e-09
2.44909e-09
4.75781e-09
2.71256e-09
-6.53826e-26
2.58988e-24
-1.56377e-25
-2.10465e-23
7.83481e-24
-3.53892e-21
2.94748e-20
-5.73887e-19
1.36842e-17
-1.36104e-16
3.59051e-16
-1.79215e-15
1.39713e-15
-8.03086e-15
1.85752e-15
-7.56196e-15
8.22548e-16
-3.50624e-15
7.68457e-15
-7.24746e-15
4.22464e-13
-7.75213e-15
5.87884e-15
-8.81341e-16
4.49329e-12
-1.57484e-11
3.95505e-13
-9.99838e-12
3.88124e-15
-7.53188e-14
1.60664e-17
-8.24458e-16
-8.28002e-10
1.96456e-16
-6.35094e-09
-9.73161e-10
-5.59524e-09
-3.61377e-08
-1.36619e-09
-2.56084e-08
7.14676e-09
-8.13789e-09
1.29259e-08
4.66243e-09
1.14236e-08
8.65815e-08
-8.26508e-26
1.2902e-24
5.2377e-25
-5.06068e-24
1.06262e-22
-1.12626e-21
3.45195e-20
-2.06883e-19
1.40419e-17
-6.36553e-17
2.1427e-16
-6.53487e-16
7.63715e-16
-2.61435e-15
8.91361e-16
-2.45626e-15
5.87975e-16
-1.56792e-15
2.12864e-15
-1.03254e-14
2.80051e-16
-6.07695e-15
2.45868e-16
-1.02048e-15
3.44819e-12
-5.88271e-16
7.8653e-14
2.64147e-17
2.35424e-15
9.79891e-16
8.48088e-17
1.44497e-15
-5.3286e-18
9.82932e-16
-9.73161e-10
3.92033e-16
-7.98949e-10
7.53284e-17
4.1989e-09
-8.82549e-17
1.32086e-08
-1.52468e-16
2.66009e-08
-1.11835e-16
8.61216e-09
3.78934e-08
-5.10988e-26
7.12001e-25
2.10747e-25
5.06513e-26
5.7298e-23
-3.97567e-22
1.55367e-20
-4.99697e-20
6.74542e-18
-1.72518e-17
8.21621e-17
-1.81587e-16
2.47191e-16
-5.75025e-16
2.94421e-16
-5.41718e-16
2.65043e-16
-4.99314e-16
3.02658e-15
-5.42795e-15
8.31806e-16
-5.02307e-15
3.36019e-16
-1.59031e-15
5.69343e-18
-2.57945e-16
-8.38108e-18
6.83193e-17
-2.68387e-16
8.92688e-16
-2.91753e-16
1.10746e-15
-1.12265e-16
7.40672e-16
2.53405e-20
3.18311e-16
-2.57275e-19
6.83721e-17
-8.42505e-19
-8.76696e-17
-9.65042e-19
-1.51203e-16
2.31541e-19
-1.07431e-16
-2.22231e-16
2.03111e-10
-2.9524e-26
5.16428e-25
-1.74632e-27
6.08482e-25
2.8157e-23
-2.021e-22
4.23191e-21
-8.97121e-21
1.92174e-18
-3.27561e-18
2.27284e-17
-3.50605e-17
5.43526e-17
-1.02759e-16
6.38534e-17
-1.01347e-16
7.88388e-17
-1.19764e-16
1.55363e-15
-2.89196e-16
1.17418e-15
-8.15194e-16
2.19709e-16
-1.21563e-15
8.60381e-17
-9.00658e-16
-2.19048e-17
-2.9252e-16
-2.59837e-16
2.59347e-16
-2.75493e-16
4.40597e-16
-1.50482e-16
3.2283e-16
-5.0044e-17
1.48535e-16
-8.45175e-18
2.62786e-17
1.91007e-17
-7.47061e-17
5.68973e-17
-1.85799e-16
1.20969e-16
-2.4555e-16
-3.69576e-16
1.90386e-16
-2.07023e-26
4.34689e-25
-2.347e-26
9.07558e-25
1.70315e-23
-1.11621e-22
8.12938e-22
-1.33121e-21
3.77688e-19
-4.56892e-19
4.34548e-18
-4.84376e-18
9.82724e-18
-1.3968e-17
1.19824e-17
-1.78856e-17
2.02044e-17
-2.82728e-17
6.32624e-17
-8.155e-17
2.12354e-16
-3.44562e-16
2.92754e-16
-6.53743e-16
2.81582e-16
-5.81798e-16
9.4224e-17
-2.70627e-16
-8.08071e-17
-1.57001e-17
-1.2959e-16
6.31617e-17
-9.01567e-17
5.89086e-17
-4.12196e-17
2.82933e-17
-8.05345e-18
2.33299e-19
5.58095e-17
-3.12456e-17
1.74775e-16
-5.91027e-17
3.21713e-16
-9.19159e-17
-1.05837e-16
7.27183e-16
-1.6555e-26
3.45487e-25
-3.72746e-26
9.61045e-25
9.382e-24
-4.44085e-23
1.23052e-22
-1.97224e-22
5.34239e-20
-4.60993e-20
5.9646e-19
-4.82128e-19
1.5897e-18
-1.43294e-18
2.45291e-18
-3.1005e-18
5.38895e-18
-7.52775e-18
2.05917e-17
-1.78951e-17
9.21186e-17
-7.10425e-17
1.3417e-16
-1.11084e-16
1.07919e-16
-9.44572e-17
4.21646e-17
-6.41581e-17
5.28358e-18
-2.58375e-17
-2.15654e-17
-6.50433e-18
-2.08016e-17
-1.3294e-18
-1.08299e-17
-1.30542e-18
-1.04446e-19
-1.0465e-18
1.6669e-17
-3.02105e-18
3.98041e-17
-1.07962e-17
1.05138e-16
-3.08996e-17
-9.20274e-17
3.29259e-16
-1.2514e-26
2.34884e-25
-4.08875e-26
8.13003e-25
3.22413e-24
-9.3503e-24
1.76913e-23
-3.14719e-23
5.38807e-21
-3.23284e-21
5.92473e-20
-3.30935e-20
1.91021e-19
-1.41284e-19
5.15077e-19
-6.34094e-19
1.53558e-18
-2.16538e-18
4.15401e-18
-4.80049e-18
1.50948e-17
-1.04774e-17
1.90087e-17
-1.1543e-17
1.53271e-17
-9.74702e-18
1.03327e-17
-5.392e-18
7.05371e-18
-1.864e-18
9.51751e-19
-4.10093e-19
5.46352e-19
-5.0513e-20
6.14062e-19
-3.24813e-20
5.81271e-19
-1.24017e-19
1.75868e-18
-7.5386e-19
1.01998e-17
-4.12581e-18
4.34507e-17
-1.53332e-17
-6.82083e-17
1.98941e-16
-8.14897e-27
1.30916e-25
-3.52391e-26
5.50796e-25
6.21155e-25
-7.42931e-25
2.7889e-24
-4.20359e-24
3.73475e-22
-1.4462e-22
4.2445e-21
-1.60718e-21
2.18384e-20
-1.84637e-20
1.21268e-19
-1.45271e-19
4.48136e-19
-5.85094e-19
1.04619e-18
-1.36266e-18
1.83946e-18
-2.04295e-18
2.02633e-18
-2.0246e-18
1.61159e-18
-1.65268e-18
6.97229e-19
-8.94683e-19
1.77875e-19
-2.84119e-19
2.82404e-20
-5.06435e-20
1.28112e-20
-6.97507e-21
2.02342e-20
-7.37142e-21
6.9095e-20
-3.02989e-20
6.38389e-19
-2.47208e-19
4.46611e-18
-1.59223e-18
2.28568e-17
-7.97263e-18
-5.22976e-17
1.40691e-16
-4.38708e-27
5.77271e-26
-2.4062e-26
2.88642e-25
6.18596e-26
1.28718e-25
3.88493e-25
-2.89883e-25
1.63891e-23
-3.22525e-24
2.20594e-22
-8.67617e-23
3.21011e-21
-2.82981e-21
2.87031e-20
-2.74558e-20
1.19308e-19
-1.2503e-19
2.67476e-19
-3.10962e-19
3.4454e-19
-4.47405e-19
3.6966e-19
-4.34253e-19
2.8237e-19
-3.39159e-19
1.21409e-19
-1.68814e-19
2.6966e-20
-4.591e-20
3.53772e-21
-6.58776e-21
1.99379e-21
-1.08168e-21
2.66496e-21
-1.40033e-21
2.15387e-20
-8.26586e-21
2.24082e-19
-7.8206e-20
1.76076e-18
-5.86536e-19
1.21362e-17
-4.4603e-18
-4.09591e-17
1.03129e-16
-1.88144e-27
1.91899e-26
-1.26123e-26
1.10036e-25
-8.65416e-27
1.25195e-25
3.40322e-26
1.56428e-26
3.57252e-25
-4.4711e-27
1.26901e-23
-7.45982e-24
4.99022e-22
-3.07523e-22
5.277e-21
-3.65195e-21
2.46517e-20
-1.94094e-20
5.79638e-20
-5.16107e-20
7.44778e-20
-8.20355e-20
7.84238e-20
-8.10373e-20
5.68413e-20
-6.48617e-20
2.18135e-20
-3.29382e-20
3.8796e-21
-8.25016e-21
4.59521e-22
-7.57915e-22
3.18258e-22
-1.41655e-22
6.157e-22
-2.58215e-22
6.20141e-21
-2.1526e-21
7.08056e-20
-2.20577e-20
6.51993e-19
-2.09051e-19
6.86729e-18
-2.66186e-18
-3.14025e-17
7.55101e-17
-6.11124e-28
4.47115e-27
-4.78068e-27
2.76589e-26
-8.38377e-27
4.76894e-26
-1.43125e-27
1.40957e-26
2.00637e-27
2.70977e-27
1.10132e-24
-3.95514e-25
5.21091e-23
-1.79732e-23
6.82966e-22
-3.4544e-22
3.70975e-21
-2.14721e-21
9.49307e-21
-6.10739e-21
1.30437e-20
-1.05342e-20
1.43132e-20
-1.06564e-20
1.07869e-20
-8.93264e-21
4.23138e-21
-4.86316e-21
6.09127e-22
-1.23922e-21
5.01484e-23
-9.6912e-23
4.20581e-23
-2.04762e-23
1.32313e-22
-5.17732e-23
1.62984e-21
-5.26574e-22
1.95321e-20
-5.66848e-21
2.31164e-19
-7.49591e-20
4.0189e-18
-1.60247e-18
-2.34399e-17
5.35957e-17
-1.39437e-28
6.50344e-28
-1.18858e-27
3.93945e-27
-3.15987e-27
7.33061e-27
-1.27428e-27
2.0971e-27
-3.09023e-28
4.22516e-28
5.57982e-26
3.6142e-30
2.95689e-24
-6.29035e-25
6.35795e-23
-2.39623e-23
3.99128e-22
-1.65035e-22
1.09849e-21
-4.86566e-22
1.61355e-21
-8.61706e-22
1.79389e-21
-8.95567e-22
1.46042e-21
-7.8227e-22
6.24889e-22
-4.57633e-22
8.76288e-23
-1.23976e-22
6.78923e-24
-1.00743e-23
6.13385e-24
-3.39613e-24
2.88647e-23
-1.09848e-23
3.91386e-22
-1.23429e-22
4.88502e-21
-1.40602e-21
8.13188e-20
-2.69628e-20
2.30544e-18
-9.3906e-19
-1.70775e-17
3.69684e-17
-1.98564e-29
4.73654e-29
-1.66579e-28
2.82057e-28
-4.77733e-28
5.43794e-28
-1.86231e-28
1.4975e-28
-4.73111e-29
2.89693e-29
-4.90206e-31
1.75788e-30
1.02877e-25
-2.31491e-26
4.30903e-24
-1.10017e-24
2.95933e-23
-7.99318e-24
8.41169e-23
-2.43447e-23
1.28236e-22
-4.33066e-23
1.43378e-22
-4.70009e-23
1.25128e-22
-4.21262e-23
5.86989e-23
-2.58777e-23
8.74291e-24
-7.40522e-24
9.84613e-25
-6.88193e-25
9.89948e-25
-4.45756e-25
6.24616e-24
-2.18583e-24
8.90889e-23
-2.87976e-23
1.17832e-21
-3.61291e-22
2.81235e-20
-9.50508e-21
1.26854e-18
-5.37048e-19
-1.18933e-17
2.46721e-17
-1.4123e-30
1.57612e-47
-1.1675e-29
2.26762e-45
-3.46618e-29
4.83578e-44
-1.29912e-29
-1.62755e-38
-3.16799e-30
-1.11879e-33
-2.32814e-31
-3.53972e-33
3.65235e-27
-8.62696e-29
1.89736e-25
-1.96868e-26
1.37625e-24
-1.88446e-25
4.02473e-24
-6.49226e-25
6.34478e-24
-1.22066e-24
7.17809e-24
-1.44445e-24
6.5323e-24
-1.28898e-24
3.26113e-24
-7.70017e-25
5.21754e-25
-2.04516e-25
1.122e-25
-2.86196e-26
1.22143e-25
-4.13879e-26
1.26333e-24
-4.33149e-25
2.02396e-23
-7.12023e-24
2.94904e-22
-1.02497e-22
9.3616e-21
-3.24128e-21
6.72584e-19
-2.93314e-19
-7.63628e-18
1.54824e-17
-4.56978e-49
1.03963e-47
-9.14395e-47
1.43182e-45
-2.99948e-45
3.28304e-44
2.73963e-39
-1.3971e-42
1.99826e-34
-5.22652e-38
7.65658e-34
-7.99098e-36
1.3095e-29
-4.68871e-32
3.30941e-27
-6.15299e-29
3.17847e-26
-8.37909e-28
1.04396e-25
-3.3444e-27
1.79191e-25
-6.85522e-27
2.09354e-25
-7.27766e-27
1.88243e-25
-6.28372e-27
8.91258e-26
-4.00479e-27
1.3985e-26
-1.56349e-27
6.40547e-27
-1.23329e-27
1.44742e-26
-4.72295e-27
2.54422e-25
-9.15337e-26
4.87871e-24
-1.93022e-24
8.11474e-23
-3.23256e-23
2.97408e-21
-1.06435e-21
3.3457e-19
-1.47038e-19
-4.42345e-18
8.84402e-18
-2.91641e-49
5.12285e-48
-5.60321e-47
6.7957e-46
-1.97309e-45
1.65184e-44
1.16467e-43
1.29648e-45
5.35006e-39
-3.17694e-42
9.90635e-37
-1.4791e-39
6.87947e-33
-7.3285e-35
1.00952e-29
-2.25714e-31
1.39431e-28
-4.7369e-30
5.30216e-28
-2.52917e-29
8.96295e-28
-6.68334e-29
1.00868e-27
-1.12525e-28
8.61094e-28
-1.17032e-28
4.84727e-28
-1.07054e-28
2.46577e-28
-6.42951e-29
2.65618e-28
-6.99019e-29
2.10252e-27
-7.58602e-28
5.29906e-26
-2.15445e-26
1.27482e-24
-5.53661e-25
2.43684e-23
-1.05928e-23
8.99975e-22
-3.34343e-22
1.50782e-19
-6.66933e-20
-2.32611e-18
4.54055e-18
-1.38473e-49
1.67785e-48
-2.5747e-47
2.15739e-46
-9.58627e-46
5.50087e-45
-1.01837e-46
1.22036e-45
3.14605e-43
-1.78625e-44
1.76731e-40
-1.93301e-42
1.03323e-35
-2.4608e-40
3.59852e-32
-1.18931e-36
7.87402e-31
-3.47198e-33
4.12519e-30
-8.61533e-32
1.05236e-29
-4.76286e-31
1.54765e-29
-1.27119e-30
1.72954e-29
-1.61291e-30
1.61969e-29
-1.45697e-30
1.16948e-29
-9.94657e-31
1.58934e-29
-4.4839e-30
3.60817e-28
-1.54511e-28
1.19859e-26
-5.33026e-27
3.43622e-25
-1.52888e-25
7.4019e-24
-3.30512e-24
2.58262e-22
-1.00376e-22
6.12321e-20
-2.77519e-20
-1.1203e-18
2.11184e-18
-4.36247e-50
2.74178e-49
-7.90413e-48
3.43935e-47
-3.07394e-46
9.19919e-46
-9.19906e-47
1.99424e-46
1.79931e-45
2.43295e-47
2.19397e-43
-2.06884e-46
3.30171e-41
-2.56785e-44
1.85162e-37
-1.33361e-40
6.04324e-34
-2.41333e-36
1.55031e-32
-2.27522e-34
8.30845e-32
-1.71168e-33
1.89113e-31
-5.34196e-33
2.24441e-31
-7.28385e-33
2.04447e-31
-6.13831e-33
1.68968e-31
-1.93649e-32
1.63747e-30
-7.67546e-31
7.21013e-29
-3.25635e-29
2.76149e-27
-1.21915e-27
8.69314e-26
-3.78122e-26
2.0978e-24
-9.39985e-25
7.04158e-23
-2.90459e-23
2.27643e-20
-1.07592e-20
-4.9049e-19
8.93274e-19
-6.86385e-51
2.12238e-59
-1.21727e-48
2.57567e-57
-4.93451e-47
1.52793e-56
-1.43696e-47
-3.12666e-53
-2.19734e-48
-2.4789e-50
2.50883e-47
-4.34693e-49
3.27823e-45
-1.93416e-47
1.97268e-41
-8.1456e-46
4.04434e-37
-9.81168e-42
4.0167e-35
-4.30202e-38
2.93307e-34
-1.2828e-36
7.76226e-34
-7.36625e-36
9.48818e-34
-1.10618e-35
8.81797e-34
-4.97955e-35
5.5353e-33
-2.58669e-33
2.9897e-31
-1.3172e-31
1.40065e-29
-5.92597e-30
5.74104e-28
-2.42166e-28
1.94534e-26
-8.32097e-27
5.37059e-25
-2.42392e-25
1.83871e-23
-8.04542e-24
7.83334e-21
-3.86516e-21
-1.9139e-19
3.39558e-19
-5.12954e-61
1.31694e-59
-8.78443e-59
1.57922e-57
-7.83272e-58
9.94865e-57
4.27831e-54
2.54742e-58
4.00587e-51
-3.03023e-52
4.33243e-50
-2.63771e-50
2.35397e-48
-1.02418e-48
1.15468e-46
-4.22975e-47
1.55888e-42
-2.17304e-45
7.55775e-39
-2.84735e-43
2.30331e-37
-7.34527e-41
1.06423e-36
-1.39978e-39
1.75913e-36
-7.31336e-38
1.25443e-35
-5.59817e-36
8.36957e-34
-3.52141e-34
4.69535e-32
-1.88031e-32
2.30479e-30
-9.20467e-31
1.02903e-28
-4.22294e-29
3.85779e-27
-1.63864e-27
1.23886e-25
-5.57397e-26
4.54499e-24
-2.04765e-24
2.46839e-21
-1.24744e-21
-6.51321e-20
1.13638e-19
-3.08044e-61
6.14303e-60
-5.16272e-59
7.30599e-58
-4.84272e-58
4.88191e-57
-1.65052e-59
6.99559e-58
2.44853e-53
-1.35696e-54
2.60185e-51
-1.62721e-52
1.17761e-49
-1.54404e-50
5.66532e-48
-1.47125e-48
3.32404e-46
-1.70499e-46
4.83532e-44
-1.15561e-44
1.33995e-41
-1.02022e-42
2.87669e-40
-8.95101e-41
1.7347e-38
-8.49723e-39
1.51086e-36
-5.79982e-37
1.03989e-34
-3.71624e-35
6.05671e-33
-2.25703e-33
3.23495e-31
-1.24816e-31
1.61446e-29
-6.35367e-30
6.80659e-28
-2.80105e-28
2.52951e-26
-1.11189e-26
1.01894e-24
-4.54335e-25
6.89906e-22
-3.46073e-22
-1.89994e-20
3.28676e-20
-1.39175e-61
1.91741e-60
-2.26965e-59
2.26958e-58
-2.23637e-58
1.60855e-57
-4.24809e-59
2.4562e-58
1.0307e-55
-1.66795e-56
1.48049e-53
-2.78169e-54
1.65505e-51
-3.42927e-52
1.84152e-49
-4.77686e-50
2.46877e-47
-5.7862e-48
1.86358e-45
-6.95047e-46
1.82528e-43
-7.79633e-44
1.80718e-41
-6.76342e-42
1.91918e-39
-6.01053e-40
1.41816e-37
-4.51658e-38
9.92093e-36
-3.39457e-36
6.57163e-34
-2.28028e-34
3.95045e-32
-1.41602e-32
2.17352e-30
-7.96987e-31
1.03678e-28
-4.08881e-29
4.46233e-27
-1.91682e-27
1.97381e-25
-8.41862e-26
1.64413e-22
-7.92449e-23
-4.67694e-21
8.11905e-21
-4.20234e-62
3.00775e-61
-6.61877e-60
3.55509e-59
-6.85122e-59
2.67186e-58
-1.38204e-59
3.82557e-59
1.1944e-57
-2.11548e-58
2.35714e-55
-4.90951e-56
3.41967e-53
-8.56553e-54
5.516e-51
-1.47854e-51
7.59789e-49
-2.22366e-49
1.0363e-46
-2.79941e-47
1.30131e-44
-3.40436e-45
1.24475e-42
-3.37183e-43
1.21116e-40
-3.4798e-41
9.9651e-39
-2.91939e-39
8.18457e-37
-2.46932e-37
5.96764e-35
-1.87425e-35
4.00877e-33
-1.30885e-33
2.43129e-31
-8.41725e-32
1.34524e-29
-5.08829e-30
6.78781e-28
-2.80932e-28
3.17745e-26
-1.23986e-26
3.22916e-23
-1.45171e-23
-9.49433e-22
1.69524e-21
-6.35821e-63
1.02568e-78
-9.5776e-61
6.00821e-76
-1.0409e-59
-2.39608e-70
-1.96336e-60
-3.06115e-62
1.60256e-59
-2.35254e-60
3.7882e-57
-7.24255e-58
7.77267e-55
-1.73755e-55
1.54629e-52
-3.30151e-53
2.64534e-50
-5.76921e-51
3.73478e-48
-8.02761e-49
5.05305e-46
-1.11996e-46
5.53562e-44
-1.25632e-44
6.28395e-42
-1.48268e-42
5.76257e-40
-1.43786e-40
5.29778e-38
-1.3169e-38
4.36258e-36
-1.21008e-36
3.28442e-34
-9.44954e-35
2.2724e-32
-7.03233e-33
1.47515e-30
-4.98418e-31
8.70552e-29
-3.28059e-29
4.0439e-27
-1.36273e-27
5.07945e-24
-2.07044e-24
-1.53488e-22
2.92972e-22
-2.08062e-80
6.68378e-79
-1.46433e-77
3.98381e-76
1.66533e-71
-2.33487e-72
2.76551e-63
-4.4034e-66
1.32904e-61
-2.06973e-62
4.96309e-59
-6.99797e-60
1.39557e-56
-2.06807e-57
3.04821e-54
-4.64938e-55
6.03947e-52
-8.89082e-53
9.4338e-50
-1.5648e-50
1.46284e-47
-2.33774e-48
1.81305e-45
-3.2097e-46
2.34794e-43
-4.33196e-44
2.48431e-41
-4.79237e-42
2.46986e-39
-5.11179e-40
2.45889e-37
-5.54626e-38
2.06882e-35
-5.31699e-36
1.65114e-33
-4.41788e-34
1.2524e-31
-3.69252e-32
8.7673e-30
-2.96481e-30
3.8065e-28
-1.08303e-28
6.19858e-25
-2.2584e-25
-1.8888e-23
4.02658e-23
-1.28875e-80
3.29419e-79
-8.55245e-78
2.01175e-76
6.662e-74
1.46605e-73
1.75244e-67
-1.02097e-68
1.02218e-63
-6.10115e-65
4.13189e-61
-3.28002e-62
1.42663e-58
-9.76218e-60
3.68342e-56
-2.94052e-57
7.97654e-54
-6.82083e-55
1.57477e-51
-1.52908e-52
2.61053e-49
-2.62852e-50
3.96021e-47
-5.06647e-48
5.85171e-45
-7.53062e-46
7.05247e-43
-9.98355e-44
8.1731e-41
-1.37157e-41
9.58128e-39
-1.74868e-39
9.88598e-37
-1.9721e-37
8.79611e-35
-1.98624e-35
7.86837e-33
-2.0989e-33
6.67284e-31
-1.92516e-31
2.5466e-29
-6.24227e-30
5.70976e-26
-1.96081e-26
-1.67467e-24
4.14098e-24
-5.93109e-81
1.09278e-79
-3.68056e-78
6.89036e-77
-3.74045e-75
6.22588e-74
3.40622e-70
-7.30521e-72
2.51153e-66
-3.53437e-68
1.61144e-63
-2.20551e-65
5.59337e-61
-1.16058e-62
1.93237e-58
-3.93914e-60
5.07207e-56
-1.60878e-57
1.27233e-53
-4.16424e-55
2.42777e-51
-1.3504e-52
5.15642e-49
-2.7757e-50
8.37742e-47
-5.50135e-48
1.21088e-44
-1.2313e-45
1.8039e-42
-1.97965e-43
2.47845e-40
-2.91468e-41
3.00015e-38
-4.0116e-39
3.23742e-36
-5.21681e-37
3.66658e-34
-8.42153e-35
3.51098e-32