/*--------------------------------*- C++ -*----------------------------------*\
| =========                 |                                                 |
| \\      /  F ield         | OpenFOAM: The Open Source CFD Toolbox           |
|  \\    /   O peration     | Version:  5.x                                   |
|   \\  /    A nd           | Web:      www.OpenFOAM.org                      |
|    \\/     M anipulation  |                                                 |
\*---------------------------------------------------------------------------*/
FoamFile
{
    version     2.0;
    format      ascii;
    class       volScalarField;
    location    "0.35";
    object      p;
}
// * * * * * * * * * * * * * * * * * * * * * * * * * * * * * * * * * * * * * //

dimensions      [1 -1 -2 0 0 0 0];

internalField   nonuniform List<scalar> 
2268
(
1077
1080.76
1091.78
1097.23
1097.29
1092.56
1086.33
1081.21
1078.55
1079.02
1083.23
1091.88
1105.8
1126.2
1154.09
1190.46
1235.48
1287.08
1338.88
1378.1
1390.03
1382.31
1442.73
1017.04
1020.74
1031.58
1037.04
1037.04
1032.33
1026.19
1021.16
1018.54
1019.01
1023.17
1031.7
1045.41
1065.09
1091.79
1126.52
1169.99
1221.2
1275.18
1317.62
1334.61
1313.78
1377.85
955.915
959.616
970.119
975.54
975.427
970.767
964.789
959.93
957.405
957.862
961.895
970.197
983.579
1002.91
1029.14
1062.97
1104.36
1151.94
1202.45
1246.33
1270.74
1263.49
1328.4
893.794
897.385
907.5
912.797
912.517
907.924
902.188
897.568
895.163
895.583
899.422
907.391
920.317
939.081
964.552
997.259
1037.1
1082.42
1130.14
1174.2
1208.81
1227.79
1296.43
830.851
834.149
843.829
848.91
848.416
843.907
838.463
834.123
831.841
832.179
835.74
843.262
855.593
873.622
898.177
929.755
968.268
1012.36
1059.33
1104.93
1149.6
1190.04
1269.71
767.309
770.041
779.233
784.007
783.261
778.847
773.715
769.654
767.458
767.645
770.829
777.778
789.371
806.509
830.006
860.381
897.673
940.883
988.089
1036.13
1087.8
1141.52
1228.58
703.413
705.263
713.808
718.125
717.089
712.808
708.023
704.227
702.056
701.997
704.686
710.926
721.63
737.714
759.99
789.033
825.098
867.524
915.124
965.582
1021.4
1081.51
1168.92
639.36
640.102
647.504
651.101
649.766
645.709
641.341
637.811
635.601
635.186
637.241
642.617
652.269
667.154
688.165
715.636
750.328
791.861
839.557
891.948
950.035
1013.62
1087.92
984.404
984.496
984.487
984.505
984.509
984.52
984.531
984.555
984.608
984.705
984.845
985.022
985.222
985.432
985.637
985.822
985.974
986.082
986.135
984.332
984.445
984.425
984.446
984.448
984.459
984.469
984.49
984.541
984.638
984.779
984.958
985.161
985.373
985.58
985.767
985.921
986.03
986.083
984.245
984.404
984.356
984.383
984.383
984.396
984.404
984.42
984.466
984.563
984.706
984.889
985.096
985.314
985.525
985.716
985.873
985.985
986.039
984.139
984.376
984.277
984.318
984.313
984.333
984.338
984.343
984.383
984.478
984.626
984.815
985.029
985.253
985.472
985.669
985.832
985.947
986.003
983.999
984.37
984.184
984.251
984.239
984.268
984.27
984.26
984.288
984.385
984.538
984.735
984.959
985.193
985.42
985.626
985.796
985.917
985.977
983.794
984.395
984.074
984.178
984.161
984.205
984.203
984.17
984.181
984.281
984.441
984.649
984.885
985.131
985.371
985.588
985.767
985.896
985.959
983.459
984.446
983.904
984.092
984.079
984.144
984.138
984.071
984.059
984.164
984.334
984.557
984.808
985.069
985.323
985.554
985.745
985.883
985.95
983.008
984.458
983.641
984.069
984
984.092
984.078
983.955
983.912
984.035
984.218
984.46
984.728
985.006
985.277
985.524
985.731
985.879
985.952
538.974
537.871
542.528
544.938
543.243
539.497
535.656
532.378
529.92
528.741
529.569
533.311
540.972
553.534
572.18
597.367
630.146
670.317
717.829
772.152
831.176
893.58
933.965
403.853
398.448
397.98
399.103
396.998
393.105
389.197
385.485
382.016
379.246
377.932
379.001
383.474
391.557
402.387
417.49
448.255
485.251
530.91
585.028
644.181
709.004
778.953
274.115
263.032
253.827
250.853
247.171
242.273
237.446
232.41
226.999
221.687
217.32
214.956
217.086
226.198
241.945
262.919
273.648
300.784
342.286
394.199
451.276
512.105
580.716
157.183
135.143
110.064
101.831
97.5325
92.6581
87.6695
82.1031
75.6946
68.7183
61.6148
54.4837
48.8488
46.6644
46.2657
47.8143
53.1751
72.4853
109.486
161.032
221.433
283.937
349.862
68.8889
36.7295
18.6666
18.8263
18.3975
16.6924
15.0052
13.5502
12.1452
10.8053
9.67919
8.61544
7.9362
7.91173
8.20141
8.48396
8.91483
10.43
13.5806
19.2219
29.822
51.832
97.5062
11.9648
6.77349
6.4395
6.65171
6.70933
6.76914
6.85801
6.96943
7.10316
7.25872
7.42809
7.56993
7.69694
7.8463
8.10799
8.39951
8.63805
8.81344
8.94659
9.08025
9.29576
10.0007
13.5802
6.26565
6.27305
6.3319
6.44289
6.52083
6.5893
6.67863
6.78458
6.90675
7.04337
7.19935
7.34816
7.48767
7.64418
7.87423
8.11316
8.29962
8.46123
8.6027
8.69548
8.81041
8.95968
9.22455
6.11639
6.17883
6.20364
6.25683
6.32255
6.39357
6.47905
6.57792
6.69001
6.81427
6.95022
7.08379
7.21613
7.35366
7.54372
7.72368
7.83149
7.84258
7.83837
7.98941
8.31781
8.69401
9.12591
5.93954
5.96496
6.0019
6.05322
6.11477
6.18384
6.26581
6.35908
6.46332
6.57728
6.70083
6.82388
6.94622
7.06726
7.17289
7.30341
7.42089
7.46543
7.51425
7.65321
7.94932
8.41166
8.90437
5.73982
5.76137
5.79662
5.84012
5.89681
5.96345
6.04144
6.12992
6.22806
6.33482
6.44949
6.56652
6.6846
6.80493
6.88866
6.99197
7.11715
7.25925
7.43982
7.67245
7.97123
8.34242
8.7939
5.52532
5.54422
5.57675
5.61367
5.66771
5.73172
5.80623
5.89075
5.9844
6.08633
6.19565
6.31011
6.42898
6.54885
6.66155
6.78006
6.90089
7.04393
7.25714
7.54651
7.93677
8.29188
8.61434
5.29645
5.31215
5.34056
5.378
5.42803
5.48906
5.56055
5.64192
5.7324
5.83126
5.93785
6.05137
6.17124
6.29601
6.42324
6.55948
6.70865
6.86192
7.03739
7.27936
7.57012
7.93122
8.30669
5.05401
5.06748
5.09335
5.1295
5.17704
5.23554
5.30444
5.38326
5.47138
5.56827
5.67357
5.78704
5.90859
6.03807
6.17581
6.32524
6.49072
6.67639
6.86164
7.10895
7.39414
7.70866
8.0321
4.79847
4.81054
4.8346
4.86925
4.91486
4.97121
5.0379
5.11455
5.20077
5.29623
5.40081
5.51462
5.63791
5.77123
5.91566
6.07362
6.24828
6.44198
6.65564
6.90609
7.18948
7.50297
7.84662
4.53054
4.54175
4.56445
4.59773
4.64169
4.69619
4.76094
4.83569
4.92023
5.01444
5.1184
5.23239
5.35693
5.49281
5.64131
5.8044
5.98458
6.18435
6.40634
6.65589
6.93284
7.23489
7.55816
4.25085
4.26151
4.28315
4.31523
4.35774
4.41059
4.47358
4.54658
4.62952
4.72247
4.82563
4.9394
5.06439
5.2015
5.35197
5.51751
5.70016
5.90208
6.12539
6.37229
6.64296
6.93603
7.24928
3.95994
3.9702
3.99098
4.02199
4.06318
4.11449
4.17582
4.24712
4.32845
4.41998
4.522
4.63497
4.75953
4.89655
5.0472
5.21294
5.39545
5.59643
5.81745
6.05966
6.32331
6.60774
6.91178
3.65828
3.66821
3.68825
3.71827
3.75821
3.80804
3.86772
3.9373
4.01689
4.10674
4.20719
4.3187
4.44189
4.5776
4.72688
4.89098
5.07127
5.26909
5.48563
5.72169
5.97759
6.25313
6.54781
3.3463
3.35591
3.37528
3.40434
3.44305
3.49139
3.54939
3.61713
3.6948
3.78265
3.88104
3.99041
4.11136
4.24464
4.39121
4.55214
4.72855
4.92152
5.132
5.36065
5.6079
5.87384
6.15841
3.02441
3.0337
3.05241
3.0805
3.11795
3.16475
3.22098
3.28674
3.36223
3.44772
3.54354
3.65012
3.76799
3.89787
4.04058
4.19705
4.36821
4.55495
4.75805
4.97816
5.21575
5.47115
5.74456
2.69302
2.70196
2.72
2.74709
2.78323
2.82841
2.88273
2.94631
3.01936
3.10211
3.19486
3.29802
3.41208
3.53767
3.67553
3.82644
3.99119
4.17051
4.3651
4.57555
4.80243
5.04614
5.3071
2.35254
2.36111
2.37846
2.40449
2.43923
2.48267
2.53492
2.59611
2.66641
2.74605
2.83528
2.93445
3.04403
3.16457
3.29672
3.44114
3.59847
3.76933
3.95435
4.15409
4.3691
4.59984
4.84682
2.00341
2.01158
2.02819
2.05309
2.08633
2.1279
2.1779
2.23646
2.30374
2.3799
2.46518
2.55988
2.6644
2.77925
2.90495
3.04206
3.1911
3.3526
3.52708
3.71505
3.917
4.13338
4.36475
1.64605
1.65378
1.66961
1.6933
1.72493
1.76448
1.81206
1.86777
1.93175
2.00412
2.08508
2.17489
2.27388
2.38248
2.50112
2.63023
2.77023
2.92153
3.08458
3.25977
3.4475
3.64811
3.86214
1.28086
1.28813
1.30313
1.32554
1.35544
1.39284
1.43782
1.49048
1.55092
1.61923
1.69556
1.78013
1.87321
1.97511
2.08618
2.20671
2.33702
2.47743
2.62824
2.78972
2.96211
3.14558
3.34057
0.908245
0.915042
0.929161
0.950208
0.978299
1.01343
1.05567
1.10511
1.1618
1.22583
1.29729
1.37634
1.46318
1.55803
1.66111
1.7726
1.89271
2.02163
2.15954
2.30651
2.46258
2.6277
2.80208
0.528599
0.534909
0.54811
0.567748
0.593959
0.62673
0.666125
0.712201
0.765002
0.824565
0.890952
0.96426
1.04461
1.13213
1.22691
1.32902
1.43854
1.55555
1.68006
1.81193
1.95095
2.09678
2.24931
0.142315
0.148137
0.160393
0.178594
0.202887
0.233246
0.269723
0.31235
0.361144
0.416111
0.477273
0.544672
0.618354
0.698336
0.784599
0.877108
0.975827
1.08069
1.19152
1.30796
1.42951
1.55553
1.68548
-0.250206
-0.24487
-0.233569
-0.216811
-0.194443
-0.166514
-0.132988
-0.0938635
-0.0491518
0.00112519
0.0569545
0.118329
0.185223
0.257561
0.335221
0.41806
0.505921
0.598592
0.695703
0.796674
0.90073
1.00689
1.11416
-0.648526
-0.64368
-0.633329
-0.618001
-0.597539
-0.572031
-0.541462
-0.505865
-0.465277
-0.419744
-0.369303
-0.314
-0.253925
-0.189234
-0.120142
-0.0468971
0.0302258
0.110864
0.194468
0.280246
0.367168
0.453933
0.539088
-1.05217
-1.04782
-1.0384
-1.02448
-1.00589
-0.982784
-0.95516
-0.923091
-0.886636
-0.845852
-0.800791
-0.751529
-0.698207
-0.641055
-0.580374
-0.516507
-0.449846
-0.38089
-0.310348
-0.239188
-0.168663
-0.10036
-0.0361256
-1.46065
-1.45684
-1.4483
-1.43577
-1.41902
-1.39829
-1.37359
-1.34503
-1.31268
-1.27659
-1.23683
-1.19349
-1.14677
-1.09696
-1.04443
-0.989616
-0.933001
-0.875206
-0.817062
-0.759676
-0.704474
-0.653268
-0.608201
-1.87353
-1.87027
-1.86258
-1.85142
-1.8365
-1.81812
-1.79632
-1.77122
-1.7429
-1.71141
-1.67681
-1.63922
-1.59889
-1.55616
-1.51146
-1.46529
-1.4182
-1.3709
-1.32432
-1.27963
-1.23841
-1.2026
-1.17453
-2.29029
-2.28761
-2.28072
-2.27095
-2.25784
-2.2418
-2.22286
-2.20116
-2.17677
-2.14972
-2.12011
-2.08807
-2.05389
-2.01796
-1.98073
-1.94272
-1.90456
-1.86698
-1.83097
-1.79777
-1.76898
-1.74666
-1.73315
-2.71025
-2.70817
-2.70207
-2.69371
-2.68241
-2.66869
-2.65257
-2.63418
-2.61358
-2.59082
-2.566
-2.5393
-2.51102
-2.48157
-2.45141
-2.42105
-2.39112
-2.36241
-2.3359
-2.31283
-2.29484
-2.28393
-2.28242
-3.13273
-3.1313
-3.12594
-3.11904
-3.10956
-3.09815
-3.08479
-3.06961
-3.05267
-3.03403
-3.01382
-2.99225
-2.96962
-2.94632
-2.92277
-2.89948
-2.87707
-2.85633
-2.83821
-2.82392
-2.81504
-2.81347
-2.82139
-3.55753
-3.55684
-3.5522
-3.54679
-3.53915
-3.53003
-3.51938
-3.50732
-3.49393
-3.4793
-3.46356
-3.44694
-3.42971
-3.41223
-3.39487
-3.37812
-3.36258
-3.34899
-3.33825
-3.33151
-3.33022
-3.33611
-3.35112
-3.9848
-3.98499
-3.98107
-3.97719
-3.97142
-3.96457
-3.95659
-3.94761
-3.93771
-3.92702
-3.91566
-3.90384
-3.89181
-3.87985
-3.86833
-3.85768
-3.84846
-3.84138
-3.83723
-3.83705
-3.84211
-3.85389
-3.87406
-4.41282
-4.41395
-4.41081
-4.40841
-4.40451
-4.39989
-4.39455
-4.38859
-4.38213
-4.37527
-4.36813
-4.36088
-4.35374
-4.34697
-4.34088
-4.33586
-4.33244
-4.3312
-4.33285
-4.33825
-4.34845
-4.36468
-4.38831
-4.83751
-4.83934
-4.83713
-4.83608
-4.83401
-4.83155
-4.82874
-4.82568
-4.82249
-4.81923
-4.816
-4.81296
-4.8103
-4.80825
-4.80707
-4.8071
-4.80878
-4.81259
-4.81909
-4.82895
-4.84304
-4.8623
-4.88776
-5.26256
-5.26485
-5.26383
-5.26405
-5.26381
-5.26353
-5.26326
-5.26308
-5.26306
-5.26329
-5.26385
-5.2649
-5.26658
-5.26908
-5.27261
-5.27746
-5.28394
-5.29241
-5.30331
-5.31713
-5.33447
-5.35599
-5.38241
-5.70528
-5.70873
-5.70903
-5.71061
-5.71237
-5.7145
-5.71705
-5.72005
-5.72357
-5.72769
-5.73253
-5.73817
-5.74476
-5.75242
-5.76134
-5.7717
-5.78368
-5.79755
-5.81359
-5.8321
-5.85339
-5.87782
-5.9058
897.461
997.315
988.905
972.878
827.743
847.136
833.633
843.438
620.352
632.451
638.168
650.634
393.365
415.851
438.457
461.286
141.091
168.5
195.938
221.932
19.0588
23.5584
29.2992
36.0439
9.57759
9.81157
10.0385
10.3059
9.47768
9.70339
9.91689
10.1131
9.272
9.50807
9.73311
9.95122
9.16779
9.40048
9.61817
9.82603
8.89699
9.10227
9.30797
9.50892
8.57388
8.7461
8.92087
9.10781
8.30956
8.48946
8.67251
8.85906
8.09722
8.2655
8.43583
8.61175
7.80592
7.96891
8.13956
8.31353
7.4928
7.65334
7.81848
7.98791
7.14916
7.30584
7.46696
7.63244
6.77846
6.93088
7.08773
7.24899
6.38155
6.52917
6.68124
6.83774
5.95927
6.10145
6.24805
6.39911
5.51222
5.64815
5.78844
5.93317
5.04104
5.16978
5.30278
5.44012
4.54658
4.6671
4.79166
4.92034
4.03001
4.14119
4.25602
4.37462
3.49289
3.59355
3.69729
3.80422
2.93731
3.02628
3.1176
3.2113
2.36619
2.44253
2.52031
2.59941
1.78323
1.84636
1.90992
1.97363
1.19265
1.24247
1.29168
1.33987
0.598851
0.635753
0.67108
0.704311
0.00609397
0.0309824
0.0534537
0.0729697
-0.581816
-0.567669
-0.556585
-0.549068
-1.16191
-1.157
-1.15559
-1.15814
-1.73203
-1.73473
-1.74117
-1.75177
-2.29047
-2.29912
-2.31158
-2.3282
-2.83631
-2.84927
-2.86593
-2.88657
-3.37073
-3.3865
-3.40568
-3.42851
-3.89661
-3.9139
-3.9342
-3.95771
-4.41241
-4.43023
-4.45058
-4.47359
-4.91204
-4.92952
-4.94902
-4.97066
-5.40603
-5.42267
-5.44088
-5.46074
-5.92928
-5.94532
-5.96238
-5.98051
979.24
982.065
983.122
983.571
983.907
984.017
984.006
983.781
983.657
983.834
984.025
984.301
984.598
984.905
985.208
985.486
985.72
985.888
985.972
918.708
971.081
980.775
981.817
983.819
983.875
983.993
983.353
983.08
983.484
983.652
984.045
984.403
984.764
985.122
985.458
985.744
985.953
986.058
684.616
758.825
941.62
865.114
945.786
977.972
983.9
981.796
981.714
982.497
983.029
983.668
984.188
984.595
985.04
985.455
985.818
986.085
986.22
495.397
534.133
616.317
574.526
676.877
841.125
890.412
920.505
954.138
980.47
981.742
983.413
984.048
984.218
984.933
985.487
985.959
986.304
986.481
263.987
311.974
356.962
388.165
443.655
529.399
565.932
601.107
702.772
845.986
930.438
973.952
982.761
983.476
984.812
985.588
986.191
986.643
986.872
51.1997
79.4218
113.035
144.381
178.752
223.66
262.307
302.293
384.433
512.087
624.774
795.552
939.279
981.666
985.225
985.856
986.503
987.119
987.431
11.1444
14.1028
17.7745
21.4465
26.0839
32.6326
39.0698
45.652
73.8849
172.203
299.741
479.147
696.61
923.107
982.728
986.243
986.895
987.706
988.208
10.4195
10.9604
11.5867
12.2407
12.8595
13.4231
14.0941
15.0228
16.4144
22.3555
39.994
131.675
368.111
667.868
925.078
984.954
987.116
988.442
989.349
10.3079
10.8228
11.3984
11.8968
12.3391
12.8577
13.3702
13.9337
14.4027
14.8913
16.3727
21.2918
65.6895
325.913
680.935
952.11
986.966
989.541
991.222
10.1487
10.5581
11.0246
11.5658
12.0228
12.4894
12.9457
13.4062
13.9693
14.5635
15.181
16.1091
18.1595
70.0332
366.101
788.229
989.687
991.302
994.184
9.84385
10.3113
10.7511
11.2205
11.6867
12.1685
12.6822
13.2212
13.812
14.4682
15.2048
16.1027
16.8748
18.9296
76.9343
557.648
943.322
992.495
998.864
9.4422
9.93342
10.4173
10.9087
11.4066
11.929
12.4751
13.0485
13.662
14.3281
15.0359
15.7701
16.4677
16.3751
17.767
345.028
857.703
1003.47
1006.2
9.17668
9.64323
10.1303
10.6253
11.1314
11.6609
12.2174
12.805
13.4288
14.0834
14.7359
15.3786
16.1291
16.3499
17.893
105.953
749.227
1012.83
1015.55
8.91464
9.3638
9.83511
10.323
10.8297
11.3624
11.9242
12.5144
13.1321
13.7721
14.4157
15.0472
15.7702
16.2923
16.3179
20.2089
664.334
1020.37
1023.7
8.61122
9.05048
9.51223
9.99578
10.5025
11.0364
11.5989
12.1872
12.7969
13.4244
14.0642
14.7007
15.38
16.0615
16.1547
17.7635
538.238
1022.03
1033.18
8.27876
8.70943
9.16366
9.64218
10.1465
10.6793
11.2406
11.8272
12.4347
13.0597
13.7008
14.3503
15.0059
15.7523
15.9968
17.2489
368.398
1028.98
1058.77
7.91692
8.33929
8.78632
9.25932
9.76007
10.2908
10.851
11.4373
12.0478
12.6817
13.3378
14.0129
14.6808
15.4317
15.7246
14.7539
202.867
1058.59
1120.97
7.52651
7.93993
8.37909
8.84555
9.34157
9.86974
10.4294
11.0177
11.6354
12.2853
12.9678
13.6829
14.4075
15.2042
15.7302
13.2024
91.8714
1105.6
1216.67
7.10745
7.51066
7.94067
8.3994
8.88981
9.41555
9.97678
10.5705
11.1976
11.8669
12.5782
13.3382
14.1548
15.0999
16.1736
15.7874
42.1586
1051.76
1248.96
6.65978
7.05097
7.46999
7.91933
8.40298
8.92639
9.49221
10.0975
10.7363
11.4272
12.161
12.9544
13.8522
14.9334
16.3781
18.3664
27.0276
883.777
1082.95
6.18332
6.56017
6.96574
7.40335
7.87839
8.39849
8.97035
9.5943
10.2656
10.9642
11.7118
12.5162
13.4333
14.4999
15.8392
17.6727
39.1517
332.392
520.489
5.67783
6.03726
6.426
6.84835
7.31153
7.82537
8.39984
9.03788
9.72726
10.455
11.2222
12.0198
12.8835
13.8644
14.9692
8.66647
-94.4221
-348.795
-7.30935
5.14325
5.48114
5.84813
6.24947
6.6946
7.19571
7.7652
8.4107
9.11854
9.88335
10.678
11.4469
12.2572
13.2497
12.8797
6.06658
-41.6946
-147.269
-0.617257
4.57999
4.89142
5.23042
5.60255
6.01933
6.49598
7.04696
7.69306
8.43296
9.24321
10.058
10.8131
11.5038
12.3668
16.2925
16.3551
22.1207
-23.6459
-1.94394
3.98903
4.26852
4.57223
4.90508
5.28104
5.71884
6.23115
6.86138
7.64671
8.55034
9.4372
10.3671
10.9874
9.18943
-1.25748
-1.60899
20.8178
-10.6273
-11.3174
3.37244
3.61393
3.8733
4.15346
4.47319
4.85077
5.29149
5.87088
6.72237
7.80853
8.40392
8.61678
2.72602
0.771312
-9.16486
-23.5946
-14.5138
-29.0772
-24.0206
2.73431
2.93179
3.13681
3.34789
3.5868
3.85814
4.15722
4.63024
5.60621
6.75655
5.67225
-25.2358
-28.345
-20.5254
-24.547
-42.384
-41.3214
-36.2729
-31.5619
2.08075
2.23012
2.37417
2.50379
2.63101
2.72291
2.75409
3.01763
4.01664
4.13262
-3.56395
-35.9932
-30.2372
-22.406
-21.7317
-29.0335
-42.9395
-35.2328
-34.1877
1.4189
1.51914
1.60244
1.64949
1.65575
1.52885
1.19683
1.0482
0.238155
-9.21044
-20.6539
-21.0511
-20.8464
-25.0058
-28.5953
-30.0255
-32.5188
-34.3323
-35.2901
0.756199
0.809618
0.836825
0.807196
0.714919
0.433509
-0.0794979
-0.70064
-5.95272
-26.5808
-27.0444
-26.3102
-27.2879
-28.723
-29.5265
-30.3366
-31.3743
-35.5566
-35.8635
0.100049
0.112403
0.0907195
-0.00501475
-0.176195
-0.571087
-1.08948
-1.83542
-5.24566
-24.8793
-25.7407
-25.9784
-27.3134
-28.7919
-29.641
-30.0776
-30.9531
-36.3009
-35.5068
-0.543355
-0.564023
-0.624069
-0.762516
-0.986054
-1.50573
-2.21432
-2.83843
-2.14137
-22.0862
-24.5443
-25.9642
-27.2963
-28.4948
-29.2336
-29.0682
-29.6323
-34.9291
-33.8471
-1.16994
-1.21598
-1.30341
-1.45878
-1.69664
-2.20692
-2.82411
-4.08381
-7.3461
-21.7516
-25.5891
-25.892
-26.6465
-27.8215
-28.5337
-28.2233
-28.3907
-31.8368
-31.2015
-1.77728
-1.84254
-1.94861
-2.11146
-2.35443
-2.73999
-3.01154
-3.88944
-2.83274
-22.4258
-25.184
-25.6212
-25.4638
-26.7908
-27.3205
-27.2021
-26.7068
-28.2849
-27.9491
-2.36363
-2.44222
-2.55902
-2.72698
-2.97142
-3.30134
-3.771
-4.39489
-4.8238
-5.48512
-23.0526
-24.7159
-24.1726
-24.8428
-25.2391
-25.1752
-24.3155
-24.9275
-24.6938
-2.92827
-3.01406
-3.13419
-3.29954
-3.52435
-3.81167
-4.34195
-4.86731
-5.50637
-5.56531
-17.9675
-22.1409
-22.0047
-22.0565
-22.4316
-22.3603
-21.4752
-21.7282
-21.6116
-3.47322
-3.56058
-3.67786
-3.83267
-4.02844
-4.27218
-4.68599
-4.98833
-5.65614
-6.17444
-13.9273
-19.0856
-20.3621
-19.2629
-19.5158
-19.325
-18.6055
-18.7372
-18.6851
-4.00279
-4.08725
-4.19688
-4.33649
-4.50731
-4.70871
-4.96334
-5.12113
-5.5343
-3.80199
-12.0853
-19.6248
-18.8303
-16.798
-16.918
-16.5351
-15.9722
-16.0057
-15.9288
-4.51688
-4.59524
-4.69391
-4.81554
-4.96146
-5.12928
-5.32099
-5.5537
-5.66371
-5.40665
-6.02935
-16.0623
-14.4274
-15.1684
-14.671
-14.1876
-13.642
-13.5401
-13.3852
-5.0107
-5.0809
-5.16696
-5.27019
-5.39061
-5.52198
-5.66756
-5.85337
-5.81435
-6.54426
-9.53909
-17.6182
-15.154
-14.9341
-12.9994
-12.3552
-11.5431
-11.2975
-11.063
-5.49697
-5.55808
-5.63089
-5.71642
-5.81507
-5.92329
-6.04845
-6.12848
-6.05085
-6.43407
-1.59197
-38.1657
-56.2014
-19.6965
-11.3956
-10.6488
-9.37597
-9.1294
-8.92931
-6.0128
-6.06453
-6.12345
-6.19048
-6.26689
-6.35508
-6.47244
-6.59929
-6.94016
-7.5422
-10.6028
-65.8936
-149.045
-25.1231
-9.59459
-9.00483
-7.22293
-7.10691
-6.76205
)
;

boundaryField
{
    leftWall
    {
        type            calculated;
        value           nonuniform List<scalar> 
50
(
1077
1017.04
955.915
893.794
830.851
767.309
703.413
639.36
538.974
403.853
274.115
157.183
68.8889
11.9648
6.26565
6.11639
5.93954
5.73982
5.52532
5.29645
5.05401
4.79847
4.53054
4.25085
3.95994
3.65828
3.3463
3.02441
2.69302
2.35254
2.00341
1.64605
1.28086
0.908245
0.528599
0.142315
-0.250206
-0.648526
-1.05217
-1.46065
-1.87353
-2.29029
-2.71025
-3.13273
-3.55753
-3.9848
-4.41282
-4.83751
-5.26256
-5.70528
)
;
    }
    rightWall
    {
        type            calculated;
        value           nonuniform List<scalar> 
50
(
986.135
986.083
986.039
986.003
985.977
985.959
985.95
985.952
985.972
986.058
986.22
986.481
986.872
987.431
988.208
989.349
991.222
994.184
998.864
1006.2
1015.55
1023.7
1033.18
1058.77
1120.97
1216.67
1248.96
1082.95
520.489
-7.30935
-0.617257
-1.94394
-11.3174
-24.0206
-31.5619
-34.1877
-35.2901
-35.8635
-35.5068
-33.8471
-31.2015
-27.9491
-24.6938
-21.6116
-18.6851
-15.9288
-13.3852
-11.063
-8.92931
-6.76205
)
;
    }
    lowerWall
    {
        type            calculated;
        value           nonuniform List<scalar> 
62
(
1106.43
1110.19
1121.21
1126.66
1126.71
1121.99
1115.76
1110.64
1107.98
1108.45
1112.66
1121.31
1135.23
1155.63
1183.52
1219.89
1264.91
1316.51
1368.31
1407.42
1414.18
1405.02
1471.18
1442.73
1377.85
1328.4
1296.43
1269.71
1228.58
1168.92
1087.92
960.059
1059.91
1040.75
979.32
984.404
984.332
984.245
984.139
983.999
983.794
983.459
983.008
984.434
984.525
984.516
984.535
984.539
984.55
984.561
984.585
984.638
984.734
984.874
985.051
985.252
985.462
985.667
985.852
986.004
986.112
986.164
)
;
    }
    atmosphere
    {
        type            calculated;
        value           nonuniform List<scalar> 
46
(
-5.94521
-5.95079
-5.95136
-5.95377
-5.95669
-5.96028
-5.96454
-5.9695
-5.9752
-5.98174
-5.98924
-5.99778
-6.00747
-6.01843
-6.0308
-6.04472
-6.06034
-6.07782
-6.09737
-6.1192
-6.14346
-6.17031
-6.2
-6.22403
-6.24015
-6.25693
-6.27443
-6.30508
-6.35222
-6.40375
-6.46034
-6.52275
-6.59306
-6.67855
-6.72115
-6.88992
-7.41609
-5.98194
-289.202
-521.156
-94.7516
-5.73143
-5.73337
-5.72965
-5.7293
-5.72905
)
;
    }
    defaultFaces
    {
        type            empty;
    }
}


// ************************************************************************* //
