/*--------------------------------*- C++ -*----------------------------------*\
| =========                 |                                                 |
| \\      /  F ield         | OpenFOAM: The Open Source CFD Toolbox           |
|  \\    /   O peration     | Version:  5.x                                   |
|   \\  /    A nd           | Web:      www.OpenFOAM.org                      |
|    \\/     M anipulation  |                                                 |
\*---------------------------------------------------------------------------*/
FoamFile
{
    version     2.0;
    format      ascii;
    class       volScalarField;
    location    "0.35";
    object      p_rgh;
}
// * * * * * * * * * * * * * * * * * * * * * * * * * * * * * * * * * * * * * //

dimensions      [1 -1 -2 0 0 0 0];

internalField   nonuniform List<scalar> 
2268
(
1106.43
1110.19
1121.21
1126.66
1126.71
1121.99
1115.76
1110.64
1107.98
1108.45
1112.66
1121.31
1135.23
1155.63
1183.52
1219.89
1264.91
1316.51
1368.31
1407.42
1414.18
1405.02
1471.18
1105.33
1109.03
1119.87
1125.33
1125.33
1120.62
1114.48
1109.45
1106.83
1107.3
1111.46
1119.98
1133.7
1153.38
1180.08
1214.81
1258.28
1309.48
1363.47
1405.91
1418.05
1393.48
1466.14
1103.06
1106.76
1117.27
1122.69
1122.57
1117.91
1111.94
1107.08
1104.55
1105.01
1109.04
1117.34
1130.73
1150.05
1176.29
1210.11
1251.5
1299.09
1349.6
1393.48
1417.89
1410.63
1475.16
1099.8
1103.39
1113.51
1118.8
1118.52
1113.93
1108.19
1103.57
1101.17
1101.59
1105.43
1113.4
1126.32
1145.09
1170.56
1203.26
1243.11
1288.43
1336.15
1380.2
1414.82
1433.79
1501.36
1095.72
1099.01
1108.69
1113.77
1113.28
1108.77
1103.33
1098.99
1096.7
1097.04
1100.6
1108.13
1120.46
1138.49
1163.04
1194.62
1233.13
1277.22
1324.19
1369.8
1414.47
1454.9
1533.68
1091.03
1093.76
1102.96
1107.73
1106.98
1102.57
1097.44
1093.38
1091.18
1091.37
1094.55
1101.5
1113.09
1130.23
1153.73
1184.1
1221.4
1264.61
1311.81
1359.85
1411.52
1465.25
1552.2
1085.99
1087.84
1096.39
1100.71
1099.67
1095.39
1090.61
1086.81
1084.64
1084.58
1087.27
1093.51
1104.21
1120.3
1142.57
1171.61
1207.68
1250.11
1297.71
1348.16
1403.98
1464.09
1551.51
1080.8
1081.54
1088.94
1092.54
1091.21
1087.15
1082.78
1079.25
1077.04
1076.63
1078.68
1084.06
1093.71
1108.59
1129.61
1157.08
1191.77
1233.3
1281
1333.39
1391.48
1455.07
1529.36
984.434
984.525
984.516
984.535
984.539
984.55
984.561
984.585
984.638
984.734
984.874
985.051
985.252
985.462
985.667
985.852
986.004
986.112
986.164
984.421
984.533
984.513
984.534
984.536
984.547
984.557
984.578
984.629
984.726
984.867
985.046
985.249
985.462
985.669
985.856
986.009
986.118
986.171
984.392
984.551
984.503
984.53
984.53
984.544
984.552
984.567
984.614
984.71
984.854
985.036
985.244
985.461
985.672
985.863
986.02
986.132
986.186
984.345
984.582
984.483
984.524
984.519
984.539
984.544
984.549
984.589
984.684
984.832
985.021
985.235
985.459
985.678
985.875
986.038
986.153
986.209
984.264
984.657
984.449
984.516
984.504
984.533
984.535
984.525
984.553
984.65
984.803
985
985.224
985.458
985.685
985.891
986.061
986.182
986.241
984.144
985.062
984.398
984.502
984.485
984.528
984.527
984.494
984.505
984.604
984.764
984.973
985.209
985.455
985.694
985.912
986.091
986.219
986.282
983.897
985.201
984.464
984.475
984.461
984.527
984.521
984.454
984.441
984.547
984.716
984.939
985.191
985.452
985.705
985.936
986.128
986.265
986.333
983.469
984.949
984.183
984.51
984.441
984.534
984.52
984.396
984.354
984.477
984.659
984.901
985.169
985.447
985.718
985.966
986.172
986.32
986.393
1072.44
1071.34
1075.99
1078.4
1076.71
1072.96
1069.12
1065.84
1063.39
1062.21
1063.04
1066.78
1074.44
1087
1105.65
1130.83
1163.61
1203.78
1251.3
1305.62
1364.64
1427.05
1467.43
1062.51
1057.11
1056.64
1057.76
1055.66
1051.77
1047.86
1044.15
1040.68
1037.91
1036.59
1037.66
1042.14
1050.22
1061.05
1076.15
1106.92
1143.91
1189.57
1243.69
1302.84
1367.67
1437.61
1057.97
1046.88
1037.66
1034.68
1031
1026.11
1021.28
1016.25
1010.83
1005.52
1001.16
998.796
1000.93
1010.04
1025.78
1046.77
1057.5
1084.64
1126.14
1178.06
1235.13
1295.96
1364.57
1066.23
1032.27
931.562
919.817
912.696
893.065
867.715
839.218
805.21
765.196
721.282
677.389
637.836
607.371
596.188
614.841
662.279
749.904
874.465
1034.22
1130.48
1192.99
1258.91
951.621
499.981
218.966
218.396
209.462
178.854
147.671
120.139
92.9529
65.9972
41.41
20.9808
8.97045
8.94597
9.23581
9.51884
13.3976
34.641
84.4756
178.772
355.509
621.36
904.391
117.264
7.93293
7.59894
7.81115
7.86877
7.92858
8.01745
8.12887
8.2626
8.41816
8.58753
8.72937
8.85638
9.00574
9.26743
9.55913
9.80137
9.98477
10.1909
10.595
10.9202
23.5287
97.1735
7.55029
7.55769
7.61653
7.72752
7.80547
7.87393
7.96326
8.06921
8.19138
8.328
8.48402
8.63283
8.77231
8.92881
9.16738
9.70069
10.1549
10.5171
10.4716
10.5515
10.4291
10.3312
10.6374
7.52622
7.58866
7.61347
7.66666
7.73238
7.8034
7.88888
7.98775
8.09984
8.2241
8.36034
8.49392
8.62598
8.76349
9.44792
10.5631
10.6711
10.682
10.6781
10.8218
10.1736
10.1612
10.5936
7.47456
7.49999
7.53692
7.58824
7.64979
7.71886
7.80083
7.89411
7.99834
8.1123
8.23618
8.35923
8.48127
8.60228
9.54888
10.3729
10.5125
10.5573
9.92397
9.28897
9.55361
10.0074
10.5002
7.40004
7.42159
7.45683
7.50033
7.55703
7.62367
7.70166
7.79014
7.88827
7.99504
8.11004
8.227
8.3449
8.47726
8.54888
8.91757
9.77018
10.0159
9.45437
9.685
9.72648
10.0684
10.5198
7.31073
7.32963
7.36216
7.39908
7.45312
7.51713
7.59164
7.67617
7.76982
7.87174
7.9811
8.09552
8.21485
8.3343
8.44696
8.56547
8.6863
8.96681
10.2414
10.5341
10.9243
10.5024
10.9903
7.20706
7.22275
7.25117
7.28861
7.33864
7.39967
7.47116
7.55253
7.64301
7.74187
7.84846
7.96198
8.08223
8.20676
8.33384
8.47009
8.61926
8.77253
9.36118
10.0101
10.5431
10.9902
11.3655
7.08981
7.10328
7.12915
7.1653
7.21285
7.27134
7.34024
7.41906
7.50718
7.60408
7.70937
7.82284
7.94439
8.07388
8.21161
8.36104
8.52652
8.71219
8.89744
9.14475
9.42994
9.74446
10.0912
6.95946
6.97154
6.9956
7.03024
7.07585
7.13221
7.1989
7.27555
7.36176
7.45723
7.56181
7.67561
7.79891
7.93223
8.07665
8.23462
8.40928
8.60297
8.81663
9.06709
9.35047
9.66397
10.0076
6.81673
6.82794
6.85064
6.88392
6.92788
6.98238
7.04713
7.12188
7.20642
7.30063
7.40459
7.51858
7.64312
7.77901
7.9275
8.09059
8.27077
8.47054
8.69253
8.94208
9.21903
9.52108
9.84435
6.66224
6.67289
6.69453
6.72661
6.76912
6.82197
6.88496
6.95796
7.04091
7.13386
7.23701
7.35078
7.47578
7.61288
7.76336
7.92889
8.11155
8.31346
8.53678
8.78368
9.05435
9.34742
9.66066
6.49652
6.50678
6.52756
6.55857
6.59976
6.65107
6.7124
6.7837
6.86503
6.95656
7.05858
7.17155
7.29611
7.43313
7.58378
7.74951
7.93202
8.13301
8.35403
8.59624
8.85989
9.14431
9.44836
6.32006
6.32998
6.35003
6.38004
6.41999
6.46981
6.5295
6.59907
6.67867
6.76852
6.86896
6.98047
7.10367
7.23938
7.38865
7.55275
7.73304
7.93087
8.1474
8.38346
8.63937
8.9149
9.20959
6.13327
6.14288
6.16225
6.19131
6.23002
6.27836
6.33635
6.4041
6.48177
6.56962
6.668
6.77738
6.89832
7.03161
7.17818
7.33911
7.51552
7.70849
7.91897
8.14762
8.39487
8.66081
8.94538
5.93657
5.94586
5.96457
5.99266
6.03011
6.07692
6.13314
6.1989
6.2744
6.35989
6.45571
6.56228
6.68016
6.81003
6.95275
7.10921
7.28037
7.46711
7.67022
7.89032
8.12792
8.38332
8.65673
5.73037
5.73932
5.75736
5.78445
5.82058
5.86577
5.92008
5.98367
6.05671
6.13946
6.23222
6.33538
6.44943
6.57502
6.71288
6.8638
7.02855
7.20787
7.40245
7.61291
7.83978
8.0835
8.34445
5.5151
5.52366
5.54101
5.56705
5.60178
5.64522
5.69747
5.75866
5.82897
5.9086
5.99783
6.097
6.20658
6.32712
6.45927
6.60369
6.76102
6.93189
7.11691
7.31665
7.53165
7.76239
8.00938
5.29116
5.29932
5.31594
5.34084
5.37407
5.41564
5.46565
5.52421
5.59149
5.66765
5.75293
5.84763
5.95215
6.067
6.1927
6.32981
6.47885
6.64035
6.81483
7.0028
7.20475
7.42113
7.6525
5.05899
5.06672
5.08255
5.10625
5.13787
5.17742
5.225
5.28071
5.34469
5.41706
5.49802
5.58783
5.68682
5.79542
5.91407
6.04318
6.18317
6.33448
6.49752
6.67271
6.86044
7.06105
7.27508
4.819
4.82627
4.84127
4.86367
4.89358
4.93098
4.97596
5.02862
5.08905
5.15736
5.2337
5.31827
5.41134
5.51325
5.62432
5.74485
5.87516
6.01556
6.16638
6.32786
6.50024
6.68371
6.8787
4.57157
4.57837
4.59249
4.61354
4.64163
4.67676
4.719
4.76844
4.82513
4.88916
4.96062
5.03967
5.12651
5.22136
5.32444
5.43593
5.55604
5.68496
5.82287
5.96984
6.12591
6.29103
6.46541
4.31712
4.32343
4.33663
4.35627
4.38248
4.41525
4.45465
4.50073
4.55353
4.61309
4.67948
4.75279
4.83314
4.92066
5.01543
5.11754
5.22707
5.34408
5.46859
5.60046
5.73947
5.8853
6.03783
4.05603
4.06186
4.07411
4.09231
4.11661
4.14697
4.18344
4.22607
4.27486
4.32983
4.39099
4.45839
4.53207
4.61206
4.69832
4.79083
4.88955
4.99441
5.10524
5.22168
5.34322
5.46924
5.59919
3.78871
3.79404
3.80534
3.8221
3.84447
3.8724
3.90593
3.94505
3.98976
4.04004
4.09587
4.15724
4.22414
4.29648
4.37414
4.45697
4.54483
4.63751
4.73462
4.83559
4.93964
5.04581
5.15308
3.51558
3.52043
3.53078
3.54611
3.56657
3.59208
3.62265
3.65824
3.69883
3.74436
3.79481
3.85011
3.91018
3.97487
4.04397
4.11721
4.19433
4.27497
4.35858
4.44435
4.53128
4.61804
4.7032
3.23714
3.24148
3.2509
3.26482
3.28341
3.30652
3.33414
3.36621
3.40267
3.44345
3.48851
3.53777
3.5911
3.64825
3.70893
3.7728
3.83946
3.90841
3.97896
4.05011
4.12064
4.18894
4.25318
2.95385
2.95766
2.9662
2.97873
2.99547
3.01621
3.04091
3.06947
3.10182
3.13791
3.17767
3.221
3.26772
3.31754
3.37007
3.42488
3.4815
3.53929
3.59744
3.65482
3.71002
3.76123
3.8063
2.66616
2.66942
2.67711
2.68827
2.70319
2.72158
2.74338
2.76847
2.79679
2.82828
2.86288
2.90047
2.9408
2.98353
3.02823
3.0744
3.12149
3.16879
3.21538
3.26006
3.30128
3.33709
3.36516
2.3746
2.37728
2.38416
2.39393
2.40705
2.42309
2.44203
2.46372
2.48812
2.51516
2.54478
2.57682
2.61099
2.64693
2.68416
2.72216
2.76033
2.7979
2.83391
2.86712
2.8959
2.91823
2.93173
2.07983
2.08191
2.08801
2.09637
2.10767
2.12139
2.13751
2.1559
2.1765
2.19926
2.22408
2.25078
2.27906
2.30851
2.33867
2.36903
2.39896
2.42767
2.45418
2.47725
2.49524
2.50615
2.50766
1.78254
1.78397
1.78933
1.79623
1.80572
1.81713
1.83048
1.84566
1.86261
1.88124
1.90145
1.92303
1.94565
1.96896
1.99251
2.0158
2.0382
2.05894
2.07706
2.09136
2.10024
2.1018
2.09388
1.48294
1.48363
1.48827
1.49368
1.50132
1.51044
1.52109
1.53315
1.54654
1.56117
1.57691
1.59353
1.61076
1.62824
1.6456
1.66235
1.67789
1.69148
1.70222
1.70896
1.71025
1.70436
1.68935
1.18087
1.18068
1.18459
1.18848
1.19425
1.2011
1.20907
1.21806
1.22795
1.23865
1.25
1.26182
1.27386
1.28581
1.29734
1.30799
1.3172
1.32429
1.32843
1.32862
1.32356
1.31178
1.29161
0.878041
0.876911
0.880049
0.882451
0.886348
0.890966
0.896313
0.902273
0.908731
0.915589
0.922728
0.929978
0.937116
0.943885
0.949979
0.954996
0.958422
0.959655
0.958006
0.952613
0.942407
0.926176
0.902546
0.578548
0.576716
0.578924
0.579972
0.582047
0.584509
0.587318
0.590369
0.593565
0.596828
0.600056
0.603096
0.605751
0.607801
0.608984
0.608954
0.607276
0.603464
0.596967
0.587099
0.57301
0.553759
0.528291
0.278687
0.276402
0.277413
0.277194
0.277434
0.277718
0.277988
0.278168
0.278184
0.27796
0.277393
0.276352
0.274673
0.272173
0.268635
0.26379
0.257313
0.248837
0.237942
0.224122
0.206779
0.185255
0.158838
-0.0388348
-0.0422883
-0.0425864
-0.0441695
-0.0459228
-0.0480593
-0.0506081
-0.0536081
-0.057124
-0.0612478
-0.0660824
-0.0717322
-0.0783158
-0.0859818
-0.0949015
-0.105254
-0.11724
-0.131109
-0.14715
-0.165659
-0.186948
-0.211378
-0.239355
1430.93
1530.78
1430.73
1027.78
1486.4
1505.8
1489.16
1398.83
1404.21
1416.31
1422.02
1434.37
1302.42
1324.9
1347.51
1370.33
1087.91
1181.02
1230.18
1256.02
193.197
274.121
384.719
508.698
11.041
11.3387
11.634
12.3687
10.9477
11.1779
11.3949
11.594
10.868
11.1045
11.33
11.5487
10.8937
11.1267
11.3448
11.5531
12.5219
12.9398
13.1862
13.4213
11.3661
11.1665
11.2527
11.4584
10.3454
10.5253
10.7083
10.8949
10.2582
10.4265
10.5968
10.7727
10.0921
10.2551
10.4257
10.5997
9.90419
10.0647
10.2299
10.3993
9.68574
9.84242
10.0035
10.169
9.44023
9.59265
9.74951
9.91076
9.16851
9.31614
9.46821
9.62471
8.87144
9.01362
9.16022
9.31127
8.54958
8.6855
8.8258
8.97053
8.20359
8.33233
8.46533
8.60268
7.83432
7.95485
8.0794
8.20809
7.44295
7.55413
7.66897
7.78756
7.03103
7.13168
7.23543
7.34236
6.60064
6.68961
6.78093
6.87463
6.15471
6.23105
6.30883
6.38794
5.69695
5.76008
5.82364
5.88735
5.23157
5.28138
5.33059
5.37878
4.76296
4.79986
4.83519
4.86842
4.2954
4.32029
4.34276
4.36227
3.83268
3.84683
3.85791
3.86543
3.37778
3.38269
3.3841
3.38155
2.93286
2.93016
2.92372
2.91311
2.49961
2.49096
2.4785
2.46188
2.07897
2.066
2.04935
2.02871
1.66974
1.65397
1.63479
1.61196
1.26905
1.25176
1.23146
1.20796
0.878451
0.860628
0.840279
0.817264
0.504015
0.486538
0.467034
0.445393
0.13522
0.118575
0.100367
0.0805063
-0.262832
-0.278879
-0.29594
-0.31407
979.834
1006.51
983.683
984.104
984.44
984.551
984.54
984.315
984.19
984.367
984.559
984.834
985.131
985.439
985.741
986.02
986.253
986.422
986.505
1373.8
1294.26
981.498
997.807
984.478
984.534
984.652
984.011
983.739
984.142
984.311
984.703
985.062
985.423
985.78
986.116
986.403
986.612
986.717
1468.06
1541.1
1345.69
1421.75
1442.84
1076.21
1008.03
982.587
982.498
983.282
983.817
984.453
984.972
985.379
985.824
986.239
986.602
986.869
987.004
1404.28
1442.9
1524.25
1482.56
1584.7
1650.03
1667.97
1681.83
1360.38
1041.35
982.66
984.369
984.959
985.129
985.842
986.396
986.868
987.213
987.39
1297.91
1345.88
1390.87
1421.61
1476.65
1562.25
1598.28
1633.32
1723.63
1808.14
1734.54
1212.13
984.996
984.567
985.85
986.623
987.225
987.677
987.906
709.275
922.672
1055.94
1161.85
1299.88
1380.97
1419.46
1459.45
1541.59
1668.86
1779.94
1920.51
1646.13
1041.25
986.456
987.019
987.662
988.278
988.59
27.065
75.1898
137.057
207.203
297.175
416.642
525.071
622.453
870.382
1405.28
1575.17
1750.39
1966.79
1800.2
1077.08
987.585
988.183
988.99
989.493
11.9096
12.5005
13.2087
13.9819
15.0899
16.6777
17.8998
19.3745
48.8587
183.558
454.669
1218.59
1755.05
2038.56
1782.24
1060.78
988.582
989.852
990.759
11.9064
12.4472
13.0753
13.6769
14.8449
16.8834
17.3646
16.4386
15.9795
16.5606
18.4549
133.67
890.562
1804.5
2118.11
1694.01
1022.53
991.081
992.757
11.8768
12.7469
14.8752
15.5188
15.9636
15.3514
14.7536
15.1268
15.6314
16.2315
16.8775
17.9884
41.7164
935.96
1895.11
2170.28
1418.4
993.041
995.844
13.7766
14.2375
13.8395
13.2354
13.586
13.9564
14.4677
15.0068
15.5976
16.2542
16.9932
17.906
18.7232
102.849
1309.19
2026.22
1947.03
1074.2
1000.66
11.7629
12.123
12.3478
12.8194
13.3172
13.8397
14.3857
14.9592
15.5727
16.2389
16.9472
17.683
18.3828
18.2865
614.258
1865.87
2202.64
1267.02
1008.11
11.2125
11.6791
12.1661
12.6611
13.1672
13.6967
14.2532
14.8411
15.4683
16.1233
16.7732
17.4159
18.1657
18.3862
98.3278
1514.65
2184.3
1514.03
1017.58
11.0756
11.5248
11.9961
12.484
12.9907
13.5234
14.0852
14.6754
15.3047
15.9509
16.5949
17.2132
17.9317
18.4538
18.4794
1083.36
2187.66
1700.42
1026.21
10.8974
11.3367
11.7984
12.282
12.7887
13.3226
13.8851
14.4734
15.0831
15.7283
16.37
17.0065
17.67
18.3483
18.4415
687.939
2141.78
1853.43
1042.33
10.6901
11.1208
11.575
12.0536
12.5579
13.0907
13.652
14.2386
14.8461
15.4726
16.1327
16.7823
17.4345
18.1645
18.409
360.599
1963.32
2017.93
1085.55
10.4535
10.8759
11.3229
11.7959
12.2967
12.8274
13.3875
13.9748
14.5851
15.219
15.8824
16.5713
17.2388
17.9716
18.2617
144.779
1782.3
2231.1
1184.93
10.1883
10.6017
11.0409
11.5073
12.0034
12.5315
13.0912
13.6813
14.3012
14.9506
15.6351
16.357
17.0807
17.8682
18.3924
33.9284
1616.57
2405.08
1323.97
9.89442
10.2976
10.7276
11.1864
11.6768
12.2025
12.7637
13.3575
13.9885
14.6601
15.3714
16.1301
16.9433
17.8875
18.961
18.5749
1401.59
2458.44
1464.56
9.57195
9.96314
10.3822
10.8315
11.3151
11.8388
12.4049
13.0101
13.6494
14.3448
15.0797
15.8707
16.765
17.846
19.2907
21.279
1263.34
2353.64
1431.14
9.22068
9.59753
10.0031
10.4407
10.9158
11.4361
12.0091
12.6331
13.3042
14.0027
14.751
15.5553
16.4715
17.5376
18.8769
77.7868
1057.27
1844.96
888.012
8.84038
9.19982
9.58856
10.0109
10.4741
10.988
11.5639
12.2019
12.8913
13.6187
14.3854
15.1832
16.0466
17.0273
18.1321
407.977
689.041
578.683
378.442
8.431
8.76889
9.13588
9.53722
9.98235
10.4835
11.0542
11.7
12.4077
13.1718
13.9662
14.7351
15.5452
16.5377
245.984
704.735
361.126
4.55303
188.588
7.99293
8.30436
8.64336
9.0155
9.43227
9.90928
10.4603
11.1063
11.8461
12.6564
13.4711
14.2262
14.9169
19.5051
735.88
757.275
196.264
-2.03937
1.46779
7.52716
7.80666
8.11037
8.44323
8.81918
9.25701
9.76932
10.3996
11.1849
12.0886
12.9754
13.9054
14.5257
483.017
847.969
778.679
128.435
4.18797
-7.77933
7.03577
7.27726
7.53663
7.8168
8.13652
8.51421
8.95491
9.53429
10.3858
11.472
12.0674
22.1294
570.982
880.705
872.455
742.494
76.3001
-15.1896
-20.3573
6.52283
6.72032
6.92534
7.13642
7.37533
7.64694
7.94588
8.41884
9.39485
10.5516
150.161
794.268
881.66
891.224
886.278
494.325
13.2683
-20.909
-27.7734
5.99447
6.14384
6.28789
6.41751
6.54474
6.63691
6.66785
6.93141
7.93124
36.6936
874.661
900.368
903.347
908.609
429.017
117.748
-2.89876
-23.6958
-30.274
5.45781
5.55805
5.64135
5.6884
5.69475
5.568
5.23576
5.08715
4.29331
336.379
658.515
580.996
421.897
141.695
-18.3326
-20.9626
12.639
-30.0255
-31.2512
4.92031
4.97373
5.00093
4.9713
4.87914
4.59762
4.08462
3.46342
138.898
373.875
79.1195
-15.7682
-22.8018
-24.272
-25.1457
-24.048
14.2251
-31.2057
-31.6994
4.38935
4.40171
4.38002
4.28429
4.11315
3.71822
3.19983
10.035
208.225
152.976
-17.6993
-21.337
-22.9909
-24.476
-25.3116
-24.1709
13.4885
-31.9614
-31.2175
3.87114
3.85047
3.79043
3.65198
3.42844
2.90877
2.20119
1.57692
198.868
72.9222
-10.8916
-21.5155
-22.8617
-24.0699
-24.8037
-23.5589
-3.71844
-30.3988
-29.4326
3.36975
3.32371
3.23628
3.08091
2.84305
2.3328
1.71561
0.455907
85.9894
306.851
57.3793
-21.3342
-22.0974
-23.2724
-23.9823
-23.0092
-22.7722
-27.0741
-26.659
2.88761
2.82235
2.71628
2.55343
2.31046
1.92491
1.65336
5.19726
211.942
315.239
65.7211
-20.9467
-20.7894
-22.1163
-22.6447
-22.3141
-21.7689
-23.1987
-23.2792
2.42645
2.34786
2.23106
2.0631
1.81866
1.48883
1.01913
1.00506
-0.02082
337.8
239.528
-5.2937
-19.3726
-20.043
-20.4372
-20.2307
-19.3155
-19.6897
-19.8944
1.98701
1.90121
1.78108
1.61574
1.39092
1.10369
0.578449
0.0530725
-0.582932
281.743
394.778
70.7381
-17.0795
-17.132
-17.5047
-17.3547
-16.4543
-16.4752
-16.687
1.56725
1.47989
1.36261
1.2078
1.01203
0.768293
0.360692
0.119272
-0.602097
232.286
409.331
77.8703
-15.3126
-14.2143
-14.4633
-14.2473
-13.519
-13.6545
-13.6408
1.16288
1.07842
0.968789
0.829179
0.658355
0.456954
0.202328
0.348091
0.730125
128.367
421.686
399.136
17.9472
-11.6258
-11.7441
-11.3558
-10.7896
-10.8381
-10.7614
0.773981
0.695616
0.596951
0.475323
0.329401
0.161576
-0.0301266
0.0529432
0.895461
0.513136
392.719
482.322
52.6042
-9.87382
-9.37771
-8.8936
-8.34486
-8.24843
-8.09359
0.405354
0.335154
0.24909
0.145865
0.0254442
-0.105929
-0.251502
-0.425959
0.157904
-0.574956
425.82
492.56
156.496
-9.51552
-7.58104
-6.93679
-6.12503
-5.88102
-5.64678
0.0442749
-0.0168269
-0.0896389
-0.175176
-0.27382
-0.382042
-0.507206
-0.587233
-0.509604
3.61734
318.786
483.805
459.935
3.07261
-5.852
-5.10541
-3.83395
-3.58788
-3.38806
-0.346355
-0.398086
-0.457007
-0.52404
-0.600448
-0.688639
-0.805994
-0.932847
-1.27372
-1.87576
-4.93635
220.148
366.416
68.5932
-3.92579
-3.3341
-1.55588
-1.44021
-1.0956
)
;

boundaryField
{
    leftWall
    {
        type            fixedFluxPressure;
        gradient        uniform 0;
        value           nonuniform List<scalar> 
50
(
1106.43
1105.33
1103.06
1099.8
1095.72
1091.03
1085.99
1080.8
1072.44
1062.51
1057.97
1066.23
951.621
117.264
7.55029
7.52622
7.47456
7.40004
7.31073
7.20706
7.08981
6.95946
6.81673
6.66224
6.49652
6.32006
6.13327
5.93657
5.73037
5.5151
5.29116
5.05899
4.819
4.57157
4.31712
4.05603
3.78871
3.51558
3.23714
2.95385
2.66616
2.3746
2.07983
1.78254
1.48294
1.18087
0.878041
0.578548
0.278687
-0.0388348
)
;
    }
    rightWall
    {
        type            fixedFluxPressure;
        gradient        uniform 0;
        value           nonuniform List<scalar> 
50
(
986.164
986.171
986.186
986.209
986.241
986.282
986.333
986.393
986.505
986.717
987.004
987.39
987.906
988.59
989.493
990.759
992.757
995.844
1000.66
1008.11
1017.58
1026.21
1042.33
1085.55
1184.93
1323.97
1464.56
1431.14
888.012
378.442
188.588
1.46779
-7.77933
-20.3573
-27.7734
-30.274
-31.2512
-31.6994
-31.2175
-29.4326
-26.659
-23.2792
-19.8944
-16.687
-13.6408
-10.7614
-8.09359
-5.64678
-3.38806
-1.0956
)
;
    }
    lowerWall
    {
        type            fixedFluxPressure;
        gradient        uniform 0;
        value           nonuniform List<scalar> 
62
(
1106.43
1110.19
1121.21
1126.66
1126.71
1121.99
1115.76
1110.64
1107.98
1108.45
1112.66
1121.31
1135.23
1155.63
1183.52
1219.89
1264.91
1316.51
1368.31
1407.42
1414.18
1405.02
1471.18
1471.18
1466.14
1475.16
1501.36
1533.68
1552.2
1551.51
1529.36
1430.93
1530.78
1430.73
1027.78
984.434
984.421
984.392
984.345
984.264
984.144
983.897
983.469
984.434
984.525
984.516
984.535
984.539
984.55
984.561
984.585
984.638
984.734
984.874
985.051
985.252
985.462
985.667
985.852
986.004
986.112
986.164
)
;
    }
    atmosphere
    {
        type            totalPressure;
        rho             rho;
        psi             none;
        gamma           1;
        p0              uniform 0;
        value           nonuniform List<scalar> 
46
(
-0.216171
-0.22175
-0.222324
-0.224732
-0.227653
-0.23124
-0.235501
-0.240455
-0.246157
-0.252701
-0.260196
-0.268739
-0.278429
-0.289388
-0.30176
-0.315684
-0.331298
-0.348776
-0.368332
-0.390162
-0.414416
-0.441265
-0.470964
-0.494993
-0.511108
-0.527892
-0.54539
-0.576042
-0.623184
-0.674708
-0.731304
-0.793713
-0.864024
-0.949507
-0.992111
-1.16088
-1.68705
-0.252899
0
0
0
0
0
0
0
0
)
;
    }
    defaultFaces
    {
        type            empty;
    }
}


// ************************************************************************* //
