/*--------------------------------*- C++ -*----------------------------------*\
| =========                 |                                                 |
| \\      /  F ield         | OpenFOAM: The Open Source CFD Toolbox           |
|  \\    /   O peration     | Version:  5.x                                   |
|   \\  /    A nd           | Web:      www.OpenFOAM.org                      |
|    \\/     M anipulation  |                                                 |
\*---------------------------------------------------------------------------*/
FoamFile
{
    version     2.0;
    format      ascii;
    class       volVectorField;
    location    "0.35";
    object      U;
}
// * * * * * * * * * * * * * * * * * * * * * * * * * * * * * * * * * * * * * //

dimensions      [0 1 -1 0 0 0 0];

internalField   nonuniform List<vector> 
2268
(
(-0.0280972 0.00609921 0)
(-0.0237518 -0.0062737 0)
(0.0278777 -0.0147011 0)
(0.10103 -0.0178935 0)
(0.176018 -0.017032 0)
(0.243845 -0.0143742 0)
(0.299436 -0.0114731 0)
(0.342994 -0.00904021 0)
(0.377316 -0.00722683 0)
(0.405206 -0.00590574 0)
(0.428359 -0.0048381 0)
(0.447249 -0.00378193 0)
(0.461378 -0.0024469 0)
(0.468983 -0.000513416 0)
(0.467549 0.00353185 0)
(0.448028 0.0110119 0)
(0.400965 0.0223023 0)
(0.314043 0.0365064 0)
(0.176968 0.0469169 0)
(0.00293889 0.0366846 0)
(-0.147396 0.00770818 0)
(-0.249173 0.00188617 0)
(-0.0997345 -0.0619116 0)
(-0.0295226 0.0180941 0)
(-0.0218455 -0.0195643 0)
(0.0304842 -0.0445982 0)
(0.10396 -0.0539287 0)
(0.178708 -0.0512897 0)
(0.245848 -0.0433582 0)
(0.300837 -0.0347392 0)
(0.344187 -0.0275341 0)
(0.378739 -0.0221764 0)
(0.407202 -0.0182704 0)
(0.431147 -0.0151038 0)
(0.450996 -0.0119375 0)
(0.466187 -0.00806692 0)
(0.475924 -0.00272547 0)
(0.478771 0.00532312 0)
(0.477959 0.0182867 0)
(0.47349 0.038338 0)
(0.456683 0.0676101 0)
(0.40305 0.102871 0)
(0.262312 0.122478 0)
(0.0635629 0.0969138 0)
(-0.183533 0.00539798 0)
(0.00910332 -0.140105 0)
(-0.0278625 0.0295128 0)
(-0.0184346 -0.0333099 0)
(0.0348258 -0.0747225 0)
(0.108079 -0.0895932 0)
(0.181599 -0.0848605 0)
(0.246827 -0.0716031 0)
(0.300106 -0.0574119 0)
(0.342487 -0.0456866 0)
(0.376899 -0.0370495 0)
(0.405883 -0.0307665 0)
(0.430782 -0.0256321 0)
(0.451812 -0.0204282 0)
(0.468372 -0.0141324 0)
(0.479185 -0.00585351 0)
(0.482788 0.00482661 0)
(0.477776 0.0192581 0)
(0.464767 0.0407118 0)
(0.44884 0.0747349 0)
(0.440801 0.126516 0)
(0.403726 0.179654 0)
(0.299545 0.189696 0)
(0.0827947 0.0666142 0)
(0.0826963 -0.141173 0)
(-0.0263178 0.0395537 0)
(-0.0132953 -0.0477855 0)
(0.0409566 -0.105169 0)
(0.113548 -0.124766 0)
(0.18511 -0.117484 0)
(0.247685 -0.098891 0)
(0.298764 -0.0794302 0)
(0.340053 -0.0636161 0)
(0.374528 -0.0521081 0)
(0.404457 -0.0437503 0)
(0.430838 -0.0368275 0)
(0.45361 -0.0296931 0)
(0.471999 -0.0210054 0)
(0.484796 -0.00974482 0)
(0.490581 0.0051847 0)
(0.487927 0.024651 0)
(0.475931 0.0501235 0)
(0.454605 0.0839916 0)
(0.436581 0.132533 0)
(0.433584 0.196374 0)
(0.418045 0.239069 0)
(0.276018 0.142127 0)
(0.167292 -0.0656915 0)
(-0.0242546 0.047786 0)
(-0.00662443 -0.0633089 0)
(0.0485323 -0.135722 0)
(0.119919 -0.159037 0)
(0.188764 -0.148694 0)
(0.248062 -0.124869 0)
(0.296649 -0.100642 0)
(0.336894 -0.0813529 0)
(0.371731 -0.0674979 0)
(0.403024 -0.0574181 0)
(0.431329 -0.0488952 0)
(0.456254 -0.0399013 0)
(0.476853 -0.0288525 0)
(0.491892 -0.0145638 0)
(0.500103 0.00390572 0)
(0.500332 0.0275771 0)
(0.491905 0.0575612 0)
(0.474248 0.0945969 0)
(0.449586 0.139305 0)
(0.43143 0.195947 0)
(0.442314 0.254035 0)
(0.357552 0.209685 0)
(0.214918 0.0457384 0)
(-0.0213903 0.0536867 0)
(0.00138882 -0.0800826 0)
(0.0573626 -0.166225 0)
(0.12704 -0.192104 0)
(0.192515 -0.178169 0)
(0.248097 -0.149327 0)
(0.294119 -0.121017 0)
(0.333557 -0.0990313 0)
(0.369145 -0.083452 0)
(0.402213 -0.0720359 0)
(0.432802 -0.0620944 0)
(0.460167 -0.0512988 0)
(0.483193 -0.0379023 0)
(0.500642 -0.0206634 0)
(0.511348 0.00136291 0)
(0.514344 0.0289813 0)
(0.509096 0.0630134 0)
(0.495278 0.103974 0)
(0.473696 0.150489 0)
(0.441171 0.20074 0)
(0.434293 0.261598 0)
(0.376578 0.269093 0)
(0.23746 0.185108 0)
(-0.0176869 0.056826 0)
(0.0104057 -0.0981811 0)
(0.0671135 -0.196583 0)
(0.134647 -0.223897 0)
(0.196353 -0.2059 0)
(0.248117 -0.172292 0)
(0.29181 -0.140589 0)
(0.330894 -0.11667 0)
(0.367734 -0.0999535 0)
(0.403009 -0.0875386 0)
(0.43621 -0.0763062 0)
(0.466258 -0.0637123 0)
(0.491901 -0.047936 0)
(0.511892 -0.0277602 0)
(0.525106 -0.00239246 0)
(0.530682 0.0288534 0)
(0.528219 0.0667445 0)
(0.51703 0.111475 0)
(0.499054 0.162556 0)
(0.465605 0.214512 0)
(0.435211 0.277076 0)
(0.379304 0.32213 0)
(0.266849 0.316444 0)
(-0.0133673 0.0570764 0)
(0.0198842 -0.117101 0)
(0.0771295 -0.226898 0)
(0.141936 -0.254696 0)
(0.199748 -0.23228 0)
(0.248051 -0.194252 0)
(0.290034 -0.159867 0)
(0.329408 -0.134706 0)
(0.368001 -0.117342 0)
(0.405784 -0.104195 0)
(0.44174 -0.0917733 0)
(0.474563 -0.077384 0)
(0.502973 -0.0591619 0)
(0.525758 -0.0358635 0)
(0.541819 -0.00676706 0)
(0.55025 0.0280735 0)
(0.55051 0.0695679 0)
(0.541796 0.117531 0)
(0.525364 0.172469 0)
(0.496932 0.23008 0)
(0.454084 0.298767 0)
(0.393268 0.376016 0)
(0.256124 0.473609 0)
(-0.0734586 0.0251743 0)
(-0.118669 0.00424078 0)
(-0.183951 0.0235752 0)
(-0.293552 0.0158129 0)
(-0.366772 0.020001 0)
(-0.45759 0.0157521 0)
(-0.517724 0.0111639 0)
(-0.557614 0.00714955 0)
(-0.578935 0.00296271 0)
(-0.580415 -0.000791438 0)
(-0.564502 -0.00407416 0)
(-0.534116 -0.00652812 0)
(-0.492193 -0.00864071 0)
(-0.440111 -0.0112004 0)
(-0.378107 -0.0139988 0)
(-0.306749 -0.0166544 0)
(-0.226717 -0.0192167 0)
(-0.139046 -0.0216786 0)
(-0.0468699 -0.0221357 0)
(-0.0654617 0.0723909 0)
(-0.105929 0.0167851 0)
(-0.183629 0.0739278 0)
(-0.298044 0.046771 0)
(-0.372065 0.0592826 0)
(-0.464939 0.0458638 0)
(-0.51936 0.0310877 0)
(-0.552752 0.0186681 0)
(-0.567826 0.00673529 0)
(-0.565936 -0.00468204 0)
(-0.546413 -0.0153706 0)
(-0.509913 -0.0242397 0)
(-0.45888 -0.0314538 0)
(-0.397044 -0.037637 0)
(-0.328705 -0.0431942 0)
(-0.25714 -0.048045 0)
(-0.184239 -0.0522669 0)
(-0.110447 -0.055991 0)
(-0.0369247 -0.0570618 0)
(-0.0624539 0.111352 0)
(-0.0774287 0.0288895 0)
(-0.169618 0.130385 0)
(-0.301064 0.0766273 0)
(-0.365228 0.0992621 0)
(-0.465136 0.0765657 0)
(-0.521831 0.0508196 0)
(-0.557185 0.0295858 0)
(-0.574467 0.0103017 0)
(-0.572979 -0.00889626 0)
(-0.553182 -0.0273595 0)
(-0.516838 -0.0431813 0)
(-0.466897 -0.0560209 0)
(-0.405969 -0.0659933 0)
(-0.33708 -0.0736089 0)
(-0.263527 -0.0793201 0)
(-0.188049 -0.0835891 0)
(-0.112205 -0.0870757 0)
(-0.0374863 -0.0873301 0)
(-0.117347 0.159479 0)
(-0.0749616 0.0219479 0)
(-0.160534 0.200144 0)
(-0.316666 0.105813 0)
(-0.366957 0.140134 0)
(-0.47767 0.109138 0)
(-0.534161 0.0708551 0)
(-0.568089 0.0408725 0)
(-0.584863 0.014035 0)
(-0.583123 -0.0130738 0)
(-0.562374 -0.0392717 0)
(-0.524704 -0.0613497 0)
(-0.474083 -0.07909 0)
(-0.413359 -0.0932678 0)
(-0.344944 -0.103927 0)
(-0.271411 -0.111358 0)
(-0.194919 -0.116471 0)
(-0.116865 -0.120623 0)
(-0.0391305 -0.120146 0)
(-0.233239 0.221991 0)
(-0.0860154 0.00719942 0)
(-0.166685 0.274861 0)
(-0.345826 0.138674 0)
(-0.369036 0.183594 0)
(-0.496386 0.144954 0)
(-0.552101 0.0907398 0)
(-0.582679 0.0514002 0)
(-0.59873 0.0178747 0)
(-0.596821 -0.017296 0)
(-0.574691 -0.0518583 0)
(-0.534728 -0.0804529 0)
(-0.48214 -0.102994 0)
(-0.419953 -0.120929 0)
(-0.350466 -0.134327 0)
(-0.276236 -0.143622 0)
(-0.19901 -0.149964 0)
(-0.119673 -0.154967 0)
(-0.0401197 -0.154089 0)
(-0.332423 0.35111 0)
(0.0238281 -0.0670078 0)
(-0.145745 0.389087 0)
(-0.394984 0.140765 0)
(-0.37485 0.219982 0)
(-0.522167 0.183473 0)
(-0.576195 0.110109 0)
(-0.600461 0.0601235 0)
(-0.615431 0.0220565 0)
(-0.614251 -0.0217731 0)
(-0.590601 -0.06565 0)
(-0.547425 -0.100778 0)
(-0.492055 -0.127757 0)
(-0.427673 -0.14944 0)
(-0.356201 -0.165256 0)
(-0.28045 -0.176318 0)
(-0.202018 -0.18389 0)
(-0.121483 -0.189772 0)
(-0.0407224 -0.188758 0)
(-0.446457 0.370076 0)
(-0.136666 -0.154192 0)
(-0.152003 0.474467 0)
(-0.561533 0.162973 0)
(-0.358425 0.261577 0)
(-0.54723 0.229016 0)
(-0.603816 0.124479 0)
(-0.616918 0.0641116 0)
(-0.630999 0.0294825 0)
(-0.633236 -0.0286919 0)
(-0.608653 -0.0823129 0)
(-0.56234 -0.123244 0)
(-0.504058 -0.153599 0)
(-0.436954 -0.178987 0)
(-0.362949 -0.197074 0)
(-0.285255 -0.209715 0)
(-0.205139 -0.218114 0)
(-0.123221 -0.224823 0)
(-0.0413071 -0.223812 0)
(-0.595245 0.975042 0)
(-0.473278 -0.361177 0)
(-0.358356 0.668807 0)
(-0.761701 0.253838 0)
(-0.331358 0.244796 0)
(-0.588449 0.291276 0)
(-0.653822 0.148667 0)
(-0.637119 0.0488617 0)
(-0.648011 0.0280718 0)
(-0.655149 -0.0324686 0)
(-0.624836 -0.0948955 0)
(-0.57555 -0.144351 0)
(-0.517081 -0.180124 0)
(-0.447874 -0.209649 0)
(-0.370754 -0.230179 0)
(-0.290632 -0.24425 0)
(-0.208604 -0.253673 0)
(-0.125256 -0.2614 0)
(-0.0420411 -0.260484 0)
(-0.00610158 0.0499097 0)
(0.0362156 -0.150236 0)
(0.0935834 -0.27342 0)
(0.151804 -0.299287 0)
(0.202815 -0.269799 0)
(0.246633 -0.226556 0)
(0.287275 -0.190209 0)
(0.327989 -0.164837 0)
(0.369455 -0.147419 0)
(0.410632 -0.133522 0)
(0.449987 -0.119401 0)
(0.486165 -0.102441 0)
(0.518145 -0.0809149 0)
(0.545072 -0.053465 0)
(0.565883 -0.0185392 0)
(0.580018 0.0254197 0)
(0.58642 0.0756197 0)
(0.58395 0.132208 0)
(0.571493 0.195066 0)
(0.552778 0.26258 0)
(0.515138 0.343557 0)
(0.495997 0.432258 0)
(0.435509 0.637231 0)
(0.00564184 0.0265743 0)
(0.0647752 -0.201203 0)
(0.122442 -0.331627 0)
(0.166354 -0.350716 0)
(0.20518 -0.312731 0)
(0.243401 -0.265729 0)
(0.28369 -0.22986 0)
(0.327028 -0.206075 0)
(0.372164 -0.189135 0)
(0.416953 -0.173904 0)
(0.4595 -0.156826 0)
(0.498532 -0.135806 0)
(0.533486 -0.109808 0)
(0.564537 -0.0785078 0)
(0.592224 -0.0418376 0)
(0.613583 0.000694233 0)
(0.627843 0.0536962 0)
(0.636046 0.115689 0)
(0.635153 0.185374 0)
(0.630505 0.260994 0)
(0.615449 0.348428 0)
(0.61464 0.437919 0)
(0.612385 0.600503 0)
(0.0202047 -0.0233305 0)
(0.115591 -0.262212 0)
(0.178049 -0.373697 0)
(0.193757 -0.382548 0)
(0.211575 -0.344457 0)
(0.244546 -0.302773 0)
(0.287898 -0.272602 0)
(0.33663 -0.252391 0)
(0.387213 -0.236353 0)
(0.437012 -0.219661 0)
(0.48425 -0.199276 0)
(0.527677 -0.173467 0)
(0.566367 -0.141076 0)
(0.598748 -0.101123 0)
(0.623544 -0.0528518 0)
(0.644635 0.00425138 0)
(0.662843 0.0734172 0)
(0.674721 0.14934 0)
(0.680681 0.228259 0)
(0.68389 0.306046 0)
(0.687564 0.382471 0)
(0.694754 0.456289 0)
(0.717895 0.542742 0)
(0.0434506 -0.12011 0)
(0.199161 -0.348139 0)
(0.26778 -0.404968 0)
(0.23938 -0.395958 0)
(0.227269 -0.374339 0)
(0.256566 -0.353482 0)
(0.305871 -0.335627 0)
(0.361086 -0.320834 0)
(0.417195 -0.307001 0)
(0.472466 -0.291288 0)
(0.526772 -0.271686 0)
(0.580985 -0.247028 0)
(0.634897 -0.21571 0)
(0.689491 -0.176253 0)
(0.742685 -0.127911 0)
(0.790905 -0.0709588 0)
(0.821891 -0.0125274 0)
(0.827095 0.0521572 0)
(0.815956 0.12543 0)
(0.799122 0.207174 0)
(0.784073 0.29847 0)
(0.773993 0.397225 0)
(0.784595 0.487999 0)
(0.0821721 -0.256852 0)
(0.257894 -0.493598 0)
(0.337691 -0.434815 0)
(0.265384 -0.362548 0)
(0.219838 -0.371343 0)
(0.238811 -0.38943 0)
(0.277355 -0.387103 0)
(0.316928 -0.373107 0)
(0.352949 -0.354945 0)
(0.383873 -0.333701 0)
(0.409279 -0.3089 0)
(0.423416 -0.276296 0)
(0.377284 -0.233557 0)
(0.443776 -0.202838 0)
(0.530098 -0.155917 0)
(0.615991 -0.088702 0)
(0.904339 0.0424335 0)
(0.994553 0.143856 0)
(1.00032 0.231343 0)
(0.975639 0.300272 0)
(0.945377 0.356384 0)
(0.916383 0.406292 0)
(0.897338 0.448653 0)
(0.0795882 -0.472937 0)
(0.184733 -0.662175 0)
(0.242329 -0.39678 0)
(0.135059 -0.259097 0)
(0.08722 -0.310277 0)
(0.0714815 -0.367715 0)
(0.0524404 -0.37091 0)
(0.0330468 -0.351156 0)
(0.0139675 -0.325899 0)
(0.00111283 -0.299144 0)
(0.0116368 -0.268372 0)
(0.062699 -0.217824 0)
(0.13603 -0.203264 0)
(0.184249 -0.210482 0)
(0.228453 -0.251022 0)
(0.33709 -0.297385 0)
(0.507516 -0.269493 0)
(0.763981 0.0224135 0)
(0.983484 0.26447 0)
(1.05488 0.3718 0)
(1.03288 0.437317 0)
(0.970084 0.477722 0)
(0.956873 0.505596 0)
(-0.0520398 -0.616711 0)
(-0.140098 -0.366235 0)
(-0.125067 -0.262646 0)
(-0.0516467 -0.311676 0)
(-0.000843271 -0.338037 0)
(0.00559679 -0.354556 0)
(-0.0071266 -0.353323 0)
(-0.0207027 -0.339785 0)
(-0.0270747 -0.328882 0)
(-0.0198104 -0.332337 0)
(0.0114702 -0.350175 0)
(0.0557681 -0.359433 0)
(0.104992 -0.331279 0)
(0.113962 -0.29009 0)
(0.146901 -0.364144 0)
(0.301124 -0.487919 0)
(0.489576 -0.49754 0)
(0.708598 -0.367778 0)
(0.957014 -0.0875633 0)
(1.18934 0.250013 0)
(1.28014 0.489302 0)
(1.22215 0.618641 0)
(1.09374 0.573945 0)
(-0.0864577 -0.374143 0)
(-0.129127 -0.509624 0)
(-0.0943678 -0.473462 0)
(-0.0393827 -0.389482 0)
(-0.0229482 -0.364482 0)
(-0.0107003 -0.361711 0)
(-0.0104987 -0.356387 0)
(-0.0118378 -0.347374 0)
(-0.00852686 -0.346614 0)
(0.0010741 -0.362785 0)
(0.0229305 -0.386362 0)
(0.0359043 -0.393817 0)
(0.0629943 -0.336452 0)
(0.0569705 -0.277509 0)
(0.133763 -0.495876 0)
(0.259705 -0.666655 0)
(0.357493 -0.669494 0)
(0.487894 -0.558368 0)
(0.673785 -0.341689 0)
(0.914127 -0.0267522 0)
(1.04908 0.337424 0)
(1.12192 0.622481 0)
(1.09718 0.683058 0)
(-0.0410706 -0.321613 0)
(-0.037268 -0.523775 0)
(-0.0370679 -0.445814 0)
(-0.0259071 -0.40222 0)
(-0.0143153 -0.378622 0)
(-0.00226649 -0.370204 0)
(0.0048889 -0.359596 0)
(0.00966491 -0.348207 0)
(0.0147068 -0.347677 0)
(0.0182799 -0.364573 0)
(0.0238859 -0.387439 0)
(0.0160138 -0.399479 0)
(0.036174 -0.347337 0)
(0.0725331 -0.32076 0)
(0.139383 -0.574822 0)
(0.104311 -0.702097 0)
(0.0910399 -0.704433 0)
(0.118147 -0.615046 0)
(0.147403 -0.406473 0)
(0.209642 -0.0979339 0)
(0.423017 0.233208 0)
(0.631905 0.498932 0)
(0.776087 0.634319 0)
(-0.00425995 -0.29745 0)
(-0.012322 -0.499527 0)
(-0.0202459 -0.449631 0)
(-0.0119373 -0.407218 0)
(-0.00284919 -0.389119 0)
(0.00814694 -0.379413 0)
(0.01771 -0.366831 0)
(0.0269139 -0.353859 0)
(0.0352356 -0.35107 0)
(0.0389674 -0.364094 0)
(0.0381966 -0.383971 0)
(0.0288185 -0.400911 0)
(0.0415763 -0.378503 0)
(0.100136 -0.374788 0)
(0.0933454 -0.485624 0)
(0.034245 -0.627738 0)
(-0.031092 -0.670021 0)
(-0.102096 -0.578079 0)
(-0.183179 -0.388117 0)
(-0.156599 -0.180681 0)
(-0.0918492 0.0443701 0)
(0.097152 0.327592 0)
(0.272267 0.5367 0)
(0.00683201 -0.296147 0)
(0.000786561 -0.497943 0)
(-0.00552012 -0.451207 0)
(-9.54682e-05 -0.414881 0)
(0.00855216 -0.399464 0)
(0.0188693 -0.389634 0)
(0.0301879 -0.377565 0)
(0.0433595 -0.364724 0)
(0.0567277 -0.358764 0)
(0.0660253 -0.36501 0)
(0.0688789 -0.380036 0)
(0.0669517 -0.398007 0)
(0.0732108 -0.403362 0)
(0.103786 -0.405202 0)
(0.119039 -0.46793 0)
(0.0688618 -0.545155 0)
(-0.0290624 -0.576742 0)
(-0.089824 -0.533435 0)
(-0.0737755 -0.426435 0)
(-0.0618998 -0.246691 0)
(0.0200924 -0.0641313 0)
(0.0488183 0.140325 0)
(0.231363 0.239544 0)
(0.00989871 -0.304092 0)
(0.00927838 -0.492935 0)
(0.00484063 -0.451419 0)
(0.0100429 -0.420924 0)
(0.0185862 -0.408982 0)
(0.0288262 -0.400638 0)
(0.0411062 -0.390676 0)
(0.056309 -0.379718 0)
(0.0733193 -0.372555 0)
(0.0885341 -0.374053 0)
(0.0987773 -0.384484 0)
(0.104799 -0.399947 0)
(0.108907 -0.41492 0)
(0.120414 -0.432012 0)
(0.126884 -0.463635 0)
(0.102655 -0.497946 0)
(0.0419513 -0.512458 0)
(-0.0374041 -0.494967 0)
(-0.0493848 -0.434957 0)
(-0.0184356 -0.301746 0)
(0.0573731 -0.133095 0)
(0.167467 0.00813662 0)
(0.283065 0.1039 0)
(0.0104098 -0.314979 0)
(0.0134143 -0.492041 0)
(0.0119145 -0.453454 0)
(0.0177901 -0.427558 0)
(0.0265525 -0.418401 0)
(0.0368509 -0.411957 0)
(0.0491311 -0.404582 0)
(0.0642117 -0.396571 0)
(0.0818339 -0.390525 0)
(0.0996019 -0.389938 0)
(0.114407 -0.39617 0)
(0.124683 -0.407141 0)
(0.130641 -0.420295 0)
(0.131974 -0.434949 0)
(0.125886 -0.45111 0)
(0.10465 -0.461328 0)
(0.0676659 -0.455357 0)
(0.0179145 -0.434114 0)
(-0.048445 -0.384332 0)
(-0.095076 -0.282022 0)
(-0.0948604 -0.162237 0)
(-0.0510215 -0.0399934 0)
(0.0285851 0.0615548 0)
(0.0098064 -0.327569 0)
(0.0153364 -0.493852 0)
(0.0167889 -0.457221 0)
(0.0235407 -0.43501 0)
(0.0326634 -0.428045 0)
(0.0430343 -0.423218 0)
(0.0548954 -0.417914 0)
(0.068738 -0.412503 0)
(0.0846456 -0.40826 0)
(0.101306 -0.407098 0)
(0.116264 -0.410124 0)
(0.127427 -0.416483 0)
(0.133729 -0.424325 0)
(0.133981 -0.431899 0)
(0.126902 -0.437655 0)
(0.111821 -0.437536 0)
(0.0897671 -0.425228 0)
(0.0639283 -0.397231 0)
(0.0385365 -0.352812 0)
(0.0239177 -0.286432 0)
(0.0325314 -0.207658 0)
(0.0663726 -0.124915 0)
(0.124257 -0.050611 0)
(0.00894354 -0.340511 0)
(0.0162528 -0.497865 0)
(0.0201713 -0.462645 0)
(0.027835 -0.443225 0)
(0.037339 -0.437895 0)
(0.0477995 -0.434282 0)
(0.0592927 -0.430315 0)
(0.0719412 -0.426505 0)
(0.085737 -0.423532 0)
(0.0999988 -0.422191 0)
(0.113201 -0.422991 0)
(0.123683 -0.425514 0)
(0.130248 -0.42853 0)
(0.132274 -0.430471 0)
(0.129419 -0.429643 0)
(0.121665 -0.423309 0)
(0.110275 -0.407799 0)
(0.098588 -0.380521 0)
(0.0908037 -0.340101 0)
(0.0922875 -0.285474 0)
(0.10858 -0.222059 0)
(0.141654 -0.155952 0)
(0.19102 -0.0931944 0)
(0.00821826 -0.353317 0)
(0.0167436 -0.503798 0)
(0.0225656 -0.469464 0)
(0.0310304 -0.45213 0)
(0.0409028 -0.448012 0)
(0.0515035 -0.445285 0)
(0.0628406 -0.442146 0)
(0.0748496 -0.439128 0)
(0.0873559 -0.436681 0)
(0.0999321 -0.435071 0)
(0.111767 -0.434384 0)
(0.121856 -0.434291 0)
(0.129399 -0.433983 0)
(0.134048 -0.432198 0)
(0.13576 -0.427407 0)
(0.134853 -0.417737 0)
(0.132603 -0.401064 0)
(0.131358 -0.375723 0)
(0.134307 -0.341124 0)
(0.144973 -0.297977 0)
(0.166546 -0.249331 0)
(0.200172 -0.198636 0)
(0.245479 -0.149132 0)
(0.00771282 -0.365992 0)
(0.0170647 -0.511179 0)
(0.0242846 -0.477366 0)
(0.0334325 -0.461622 0)
(0.0436553 -0.458411 0)
(0.054434 -0.456351 0)
(0.0657687 -0.453797 0)
(0.0775758 -0.451208 0)
(0.0896387 -0.448911 0)
(0.101634 -0.446993 0)
(0.113122 -0.445363 0)
(0.123578 -0.443697 0)
(0.13256 -0.441366 0)
(0.139883 -0.437422 0)
(0.145705 -0.43069 0)
(0.150589 -0.419868 0)
(0.15557 -0.403629 0)
(0.162309 -0.380998 0)
(0.173006 -0.3518 0)
(0.189915 -0.316755 0)
(0.215054 -0.277767 0)
(0.249116 -0.23693 0)
(0.291993 -0.196095 0)
(0.0074119 -0.378569 0)
(0.0173357 -0.519624 0)
(0.0255372 -0.486096 0)
(0.0352542 -0.471615 0)
(0.0458022 -0.469094 0)
(0.0567812 -0.467545 0)
(0.0681939 -0.465458 0)
(0.0799993 -0.463211 0)
(0.0920427 -0.461021 0)
(0.10409 -0.458906 0)
(0.115874 -0.456726 0)
(0.127121 -0.454177 0)
(0.137628 -0.450751 0)
(0.14737 -0.445742 0)
(0.156589 -0.438294 0)
(0.165817 -0.427467 0)
(0.175957 -0.412395 0)
(0.188275 -0.392537 0)
(0.204334 -0.367935 0)
(0.22562 -0.339315 0)
(0.253501 -0.308053 0)
(0.288372 -0.275311 0)
(0.33023 -0.241803 0)
(0.00727543 -0.391139 0)
(0.0176021 -0.528822 0)
(0.0264608 -0.495446 0)
(0.036641 -0.482028 0)
(0.047482 -0.480052 0)
(0.0586735 -0.478899 0)
(0.0702196 -0.477205 0)
(0.082117 -0.475288 0)
(0.0942898 -0.473282 0)
(0.106603 -0.471152 0)
(0.118903 -0.468752 0)
(0.131061 -0.465821 0)
(0.14302 -0.461962 0)
(0.154861 -0.456655 0)
(0.166856 -0.449277 0)
(0.179514 -0.439186 0)
(0.193608 -0.425835 0)
(0.210126 -0.408945 0)
(0.230211 -0.388647 0)
(0.254861 -0.365515 0)
(0.285039 -0.340484 0)
(0.320906 -0.314096 0)
(0.362578 -0.286416 0)
(0.00725386 -0.403786 0)
(0.0178665 -0.538517 0)
(0.0271394 -0.505254 0)
(0.0376897 -0.492784 0)
(0.0487861 -0.491263 0)
(0.0601868 -0.490439 0)
(0.0719038 -0.489094 0)
(0.0839603 -0.487511 0)
(0.0963375 -0.485773 0)
(0.108985 -0.483815 0)
(0.121848 -0.481495 0)
(0.134901 -0.478596 0)
(0.148177 -0.474821 0)
(0.161814 -0.469791 0)
(0.176106 -0.463075 0)
(0.191517 -0.454239 0)
(0.208696 -0.442932 0)
(0.228408 -0.429004 0)
(0.251499 -0.412596 0)
(0.278661 -0.394158 0)
(0.310644 -0.374359 0)
(0.347481 -0.353351 0)
(0.389439 -0.330805 0)
(0.00730961 -0.416569 0)
(0.0181152 -0.548515 0)
(0.0276192 -0.515392 0)
(0.0384573 -0.503815 0)
(0.0497631 -0.502697 0)
(0.061352 -0.50217 0)
(0.0732489 -0.501166 0)
(0.0855011 -0.499941 0)
(0.098129 -0.498552 0)
(0.111141 -0.496926 0)
(0.124555 -0.494934 0)
(0.138417 -0.492401 0)
(0.152821 -0.489105 0)
(0.16794 -0.48478 0)
(0.184064 -0.479131 0)
(0.201611 -0.47187 0)
(0.221121 -0.462773 0)
(0.243205 -0.451764 0)
(0.26852 -0.438978 0)
(0.297584 -0.424776 0)
(0.331032 -0.409625 0)
(0.368824 -0.393397 0)
(0.411389 -0.375567 0)
(0.00741304 -0.42952 0)
(0.0183255 -0.558655 0)
(0.0279185 -0.52575 0)
(0.0389712 -0.515053 0)
(0.0504337 -0.514309 0)
(0.0621729 -0.514072 0)
(0.0742292 -0.513422 0)
(0.0866711 -0.512596 0)
(0.0995479 -0.511637 0)
(0.112908 -0.510474 0)
(0.126817 -0.509001 0)
(0.141365 -0.507081 0)
(0.156682 -0.504552 0)
(0.172963 -0.50123 0)
(0.190489 -0.496921 0)
(0.209636 -0.49144 0)
(0.230864 -0.484651 0)
(0.25468 -0.476523 0)
(0.281618 -0.467176 0)
(0.312101 -0.456902 0)
(0.346695 -0.446034 0)
(0.385336 -0.434258 0)
(0.42864 -0.420988 0)
(0.00753475 -0.442643 0)
(0.0184716 -0.568805 0)
(0.028043 -0.536239 0)
(0.039242 -0.526432 0)
(0.0508024 -0.526046 0)
(0.0626397 -0.526105 0)
(0.0748126 -0.525833 0)
(0.087403 -0.525452 0)
(0.100484 -0.524996 0)
(0.114131 -0.524404 0)
(0.12844 -0.523593 0)
(0.143525 -0.522462 0)
(0.159537 -0.520899 0)
(0.176679 -0.518782 0)
(0.195222 -0.515991 0)
(0.215508 -0.512417 0)
(0.23794 -0.507989 0)
(0.262954 -0.502703 0)
(0.291006 -0.49667 0)
(0.32247 -0.490138 0)
(0.357877 -0.483352 0)
(0.397181 -0.475894 0)
(0.441197 -0.467189 0)
(0.00764341 -0.455911 0)
(0.0185298 -0.578859 0)
(0.0279995 -0.546787 0)
(0.0392758 -0.537887 0)
(0.0508682 -0.537852 0)
(0.0627406 -0.538217 0)
(0.0749702 -0.538346 0)
(0.0876465 -0.53845 0)
(0.100859 -0.538558 0)
(0.114705 -0.53862 0)
(0.129292 -0.538576 0)
(0.14475 -0.538357 0)
(0.161237 -0.537891 0)
(0.178958 -0.537108 0)
(0.198173 -0.535941 0)
(0.219193 -0.534345 0)
(0.242379 -0.532293 0)
(0.26812 -0.52981 0)
(0.296827 -0.527001 0)
(0.328853 -0.524093 0)
(0.364707 -0.521286 0)
(0.404401 -0.518123 0)
(0.448932 -0.514068 0)
(0.0077098 -0.469268 0)
(0.0184875 -0.588737 0)
(0.027807 -0.557333 0)
(0.0390864 -0.549347 0)
(0.0506361 -0.549659 0)
(0.0624725 -0.55034 0)
(0.0746845 -0.550893 0)
(0.0873675 -0.551516 0)
(0.100622 -0.552232 0)
(0.114555 -0.553007 0)
(0.129284 -0.553801 0)
(0.144941 -0.554574 0)
(0.161687 -0.555286 0)
(0.179724 -0.555906 0)
(0.199295 -0.556416 0)
(0.220685 -0.556818 0)
(0.244223 -0.557127 0)
(0.270262 -0.557393 0)
(0.299187 -0.557725 0)
(0.331346 -0.558351 0)
(0.367236 -0.559469 0)
(0.406953 -0.560641 0)
(0.451647 -0.561362 0)
(0.0077164 -0.482632 0)
(0.0183526 -0.598399 0)
(0.0274983 -0.567817 0)
(0.0386995 -0.560736 0)
(0.0501249 -0.561387 0)
(0.0618478 -0.562394 0)
(0.0739567 -0.563389 0)
(0.0865543 -0.564553 0)
(0.0997461 -0.565908 0)
(0.113644 -0.567433 0)
(0.128365 -0.569108 0)
(0.144043 -0.570915 0)
(0.160835 -0.572844 0)
(0.178937 -0.574896 0)
(0.198571 -0.577089 0)
(0.220001 -0.579467 0)
(0.243521 -0.582086 0)
(0.26946 -0.58502 0)
(0.298178 -0.588398 0)
(0.330027 -0.592464 0)
(0.365487 -0.597452 0)
(0.404754 -0.602997 0)
(0.449082 -0.608615 0)
(0.00766796 -0.495923 0)
(0.018155 -0.607837 0)
(0.0271096 -0.578177 0)
(0.0381463 -0.571971 0)
(0.0493638 -0.57295 0)
(0.0608922 -0.57429 0)
(0.0728074 -0.575737 0)
(0.0852203 -0.577453 0)
(0.0982358 -0.579461 0)
(0.111965 -0.581754 0)
(0.126524 -0.584328 0)
(0.142043 -0.587184 0)
(0.158673 -0.590337 0)
(0.176598 -0.593809 0)
(0.196023 -0.597656 0)
(0.217185 -0.60195 0)
(0.240345 -0.60679 0)
(0.265807 -0.61228 0)
(0.293904 -0.618575 0)
(0.324983 -0.625951 0)
(0.359497 -0.634704 0)
(0.397733 -0.644593 0)
(0.440983 -0.655137 0)
(0.00759572 -0.50909 0)
(0.0179331 -0.617062 0)
(0.0266604 -0.588353 0)
(0.0374491 -0.582971 0)
(0.0483762 -0.584267 0)
(0.0596312 -0.585946 0)
(0.0712638 -0.587844 0)
(0.0833936 -0.590112 0)
(0.0961197 -0.592773 0)
(0.109549 -0.595833 0)
(0.123794 -0.599301 0)
(0.138978 -0.603196 0)
(0.155245 -0.607547 0)
(0.172766 -0.612401 0)
(0.191726 -0.617837 0)
(0.212331 -0.623955 0)
(0.234815 -0.630889 0)
(0.259444 -0.638779 0)
(0.286518 -0.647813 0)
(0.316367 -0.658302 0)
(0.349392 -0.670627 0)
(0.385938 -0.684708 0)
(0.427273 -0.70005 0)
(0.00754678 -0.522128 0)
(0.0177121 -0.626073 0)
(0.0261356 -0.598277 0)
(0.0366061 -0.593664 0)
(0.0471638 -0.59527 0)
(0.0580731 -0.597286 0)
(0.0693432 -0.599627 0)
(0.0811011 -0.602433 0)
(0.093436 -0.605733 0)
(0.106448 -0.609541 0)
(0.120243 -0.613878 0)
(0.134936 -0.618774 0)
(0.150662 -0.624275 0)
(0.167575 -0.630444 0)
(0.185838 -0.637378 0)
(0.20563 -0.6452 0)
(0.22715 -0.654067 0)
(0.250622 -0.664159 0)
(0.276302 -0.675695 0)
(0.30448 -0.68902 0)
(0.335481 -0.704608 0)
(0.36966 -0.722577 0)
(0.408195 -0.742417 0)
(0.00755947 -0.535042 0)
(0.017487 -0.634802 0)
(0.0254855 -0.607847 0)
(0.0355874 -0.603971 0)
(0.0457028 -0.605879 0)
(0.056203 -0.608229 0)
(0.067043 -0.610998 0)
(0.0783557 -0.614323 0)
(0.0902183 -0.618233 0)
(0.102721 -0.622752 0)
(0.115961 -0.627912 0)
(0.130043 -0.633753 0)
(0.145089 -0.640331 0)
(0.161231 -0.647725 0)
(0.178613 -0.656043 0)
(0.197383 -0.665422 0)
(0.217705 -0.676034 0)
(0.239756 -0.68809 0)
(0.263733 -0.701831 0)
(0.289865 -0.717633 0)
(0.31838 -0.736055 0)
(0.34958 -0.757433 0)
(0.384475 -0.781269 0)
(0.00764392 -0.547841 0)
(0.0172235 -0.64311 0)
(0.0246448 -0.616955 0)
(0.0343455 -0.613806 0)
(0.0439526 -0.616014 0)
(0.053986 -0.618692 0)
(0.0643386 -0.621875 0)
(0.0751472 -0.625692 0)
(0.0864775 -0.630177 0)
(0.0984085 -0.635362 0)
(0.111024 -0.641286 0)
(0.124418 -0.647998 0)
(0.138694 -0.655563 0)
(0.153965 -0.664071 0)
(0.170347 -0.673634 0)
(0.187962 -0.684397 0)
(0.206936 -0.696539 0)
(0.227397 -0.710285 0)
(0.249473 -0.725889 0)
(0.273321 -0.743739 0)
(0.299051 -0.764453 0)
(0.326859 -0.788573 0)
(0.357469 -0.81566 0)
(0.00778731 -0.560556 0)
(0.0168759 -0.650843 0)
(0.0235516 -0.625538 0)
(0.0328286 -0.623131 0)
(0.0418623 -0.625631 0)
(0.0513702 -0.628633 0)
(0.0611779 -0.632216 0)
(0.0714262 -0.636503 0)
(0.0821719 -0.641529 0)
(0.0934814 -0.647333 0)
(0.105427 -0.653959 0)
(0.118087 -0.661463 0)
(0.131547 -0.669918 0)
(0.145898 -0.679416 0)
(0.161231 -0.690073 0)
(0.177642 -0.702033 0)
(0.195217 -0.715477 0)
(0.21404 -0.730623 0)
(0.234169 -0.74773 0)
(0.255693 -0.76717 0)
(0.278603 -0.789573 0)
(0.302945 -0.815618 0)
(0.329061 -0.844987 0)
(0.00797569 -0.573241 0)
(0.0164047 -0.657857 0)
(0.0221511 -0.633591 0)
(0.0309837 -0.631949 0)
(0.0393663 -0.634732 0)
(0.048277 -0.638051 0)
(0.0574665 -0.642023 0)
(0.0670819 -0.64676 0)
(0.0771742 -0.652299 0)
(0.0877982 -0.658682 0)
(0.0990145 -0.665957 0)
(0.110889 -0.674183 0)
(0.12349 -0.683437 0)
(0.136889 -0.693813 0)
(0.151158 -0.705425 0)
(0.166364 -0.718411 0)
(0.182564 -0.732946 0)
(0.199802 -0.749231 0)
(0.218083 -0.767513 0)
(0.237447 -0.788123 0)
(0.257779 -0.811649 0)
(0.27898 -0.838794 0)
(0.300989 -0.869397 0)
(0.00820288 -0.585857 0)
(0.0157813 -0.663921 0)
(0.0203935 -0.641034 0)
(0.0287534 -0.640191 0)
(0.0363826 -0.643235 0)
(0.0446003 -0.646862 0)
(0.0530712 -0.65121 0)
(0.0619493 -0.656378 0)
(0.0712814 -0.662404 0)
(0.0811122 -0.669332 0)
(0.0914943 -0.677212 0)
(0.102484 -0.686105 0)
(0.114136 -0.696086 0)
(0.126512 -0.70725 0)
(0.139667 -0.719707 0)
(0.153648 -0.733587 0)
(0.168494 -0.749048 0)
(0.184221 -0.766269 0)
(0.200812 -0.785479 0)
(0.21827 -0.806953 0)
(0.236416 -0.831186 0)
(0.255064 -0.858779 0)
(0.27385 -0.889728 0)
(0.00844749 -0.598191 0)
(0.0149798 -0.668656 0)
(0.0182504 -0.647623 0)
(0.0260912 -0.647616 0)
(0.0328465 -0.650882 0)
(0.0402515 -0.654802 0)
(0.0478793 -0.659506 0)
(0.0558845 -0.66508 0)
(0.0643112 -0.671565 0)
(0.0731962 -0.679001 0)
(0.0825865 -0.687439 0)
(0.0925314 -0.696941 0)
(0.10308 -0.707585 0)
(0.114285 -0.719462 0)
(0.126195 -0.732676 0)
(0.138849 -0.747346 0)
(0.152275 -0.763612 0)
(0.166478 -0.781637 0)
(0.181447 -0.801618 0)
(0.197162 -0.823782 0)
(0.21343 -0.848499 0)
(0.230065 -0.876188 0)
(0.24657 -0.906944 0)
(0.00863381 -0.61006 0)
(0.0139695 -0.671761 0)
(0.0157587 -0.653168 0)
(0.0230029 -0.654012 0)
(0.0287748 -0.657453 0)
(0.035241 -0.661639 0)
(0.0418983 -0.666669 0)
(0.0488904 -0.672613 0)
(0.0562588 -0.679511 0)
(0.0640347 -0.687403 0)
(0.0722586 -0.696338 0)
(0.0809735 -0.706383 0)
(0.0902246 -0.717618 0)
(0.100063 -0.73013 0)
(0.110534 -0.744018 0)
(0.12167 -0.759389 0)
(0.1335 -0.776371 0)
(0.146031 -0.79511 0)
(0.159267 -0.815772 0)
(0.173176 -0.838544 0)
(0.187598 -0.863674 0)
(0.202413 -0.891391 0)
(0.217137 -0.92182 0)
(0.00861496 -0.621655 0)
(0.0127123 -0.673461 0)
(0.0130484 -0.657948 0)
(0.0195735 -0.659606 0)
(0.0242991 -0.663186 0)
(0.029725 -0.667608 0)
(0.0353169 -0.672924 0)
(0.0411914 -0.679191 0)
(0.0473865 -0.686445 0)
(0.0539264 -0.69473 0)
(0.0608438 -0.704099 0)
(0.0681759 -0.714622 0)
(0.0759658 -0.726378 0)
(0.0842619 -0.739454 0)
(0.0931038 -0.753942 0)
(0.10252 -0.769943 0)
(0.112537 -0.787574 0)
(0.123173 -0.806969 0)
(0.13444 -0.828267 0)
(0.146299 -0.851621 0)
(0.158643 -0.877182 0)
(0.17143 -0.905045 0)
(0.184282 -0.935318 0)
(0.00819749 -0.633342 0)
(0.0111559 -0.674467 0)
(0.0103058 -0.6626 0)
(0.0159373 -0.664967 0)
(0.0196227 -0.668671 0)
(0.0239602 -0.673298 0)
(0.0284462 -0.678862 0)
(0.0331579 -0.685404 0)
(0.0381237 -0.692966 0)
(0.0433629 -0.701595 0)
(0.0489038 -0.711347 0)
(0.0547793 -0.722291 0)
(0.0610278 -0.734506 0)
(0.0676893 -0.748079 0)
(0.0747951 -0.763101 0)
(0.0823667 -0.779669 0)
(0.0904266 -0.797891 0)
(0.0989976 -0.817888 0)
(0.10809 -0.839781 0)
(0.117665 -0.863698 0)
(0.127661 -0.889726 0)
(0.138073 -0.917895 0)
(0.148666 -0.948287 0)
(0.00720467 -0.643754 0)
(0.00923458 -0.674123 0)
(0.00769393 -0.666185 0)
(0.0122213 -0.66908 0)
(0.0149338 -0.672899 0)
(0.0181868 -0.677688 0)
(0.0215691 -0.683446 0)
(0.0251185 -0.690206 0)
(0.0288554 -0.698009 0)
(0.0327986 -0.706904 0)
(0.036972 -0.716948 0)
(0.0414018 -0.728214 0)
(0.0461188 -0.740781 0)
(0.0511534 -0.754735 0)
(0.0565261 -0.770165 0)
(0.0622477 -0.787165 0)
(0.0683371 -0.805838 0)
(0.0748184 -0.826291 0)
(0.0816919 -0.848633 0)
(0.0889219 -0.872972 0)
(0.0964776 -0.899373 0)
(0.104362 -0.92786 0)
(0.112456 -0.958485 0)
(0.0056022 -0.648536 0)
(0.00694515 -0.669061 0)
(0.00530294 -0.664867 0)
(0.00853561 -0.668062 0)
(0.0103714 -0.671973 0)
(0.0125817 -0.676857 0)
(0.014892 -0.682719 0)
(0.0173197 -0.689586 0)
(0.0198838 -0.697501 0)
(0.0225983 -0.706515 0)