/*--------------------------------*- C++ -*----------------------------------*\
| =========                 |                                                 |
| \\      /  F ield         | OpenFOAM: The Open Source CFD Toolbox           |
|  \\    /   O peration     | Version:  5.x                                   |
|   \\  /    A nd           | Web:      www.OpenFOAM.org                      |
|    \\/     M anipulation  |                                                 |
\*---------------------------------------------------------------------------*/
FoamFile
{
    version     2.0;
    format      ascii;
    class       volScalarField;
    location    "0.15";
    object      alpha.water;
}
// * * * * * * * * * * * * * * * * * * * * * * * * * * * * * * * * * * * * * //

dimensions      [0 0 0 0 0 0 0];

internalField   nonuniform List<scalar> 
8000
(
1
1
1
1
1
1
1
1
1
1
1
1
1
1
1
1
1
1
1
1
1
1
1
1
1
1
1
1
1
1
1
1
1
1
1
1
1
1
1
1
1
1
1
1
1
1
1
1
1
1
1
1
1
1
1
1
1
1
1
1
1
1
1
1
1
1
1
1
1
1
1
1
1
1
1
1
1
1
1
1
1
1
1
1
1
1
1
1
1
1
1
1
1
1
1
1
1
1
1
1
1
1
1
1
1
1
1
1
1
1
1
1
1
1
1
1
1
1
1
1
1
1
1
1
1
1
1
1
1
1
1
1
1
1
1
1
1
1
1
1
1
1
1
1
1
1
1
1
1
1
1
1
1
1
1
1
1
1
1
1
1
1
1
1
1
1
1
1
1
1
1
1
1
1
1
1
1
1
1
1
1
1
1
1
1
1
1
1
1
1
1
1
1
1
1
1
1
1
1
1
1
1
1
1
1
1
1
1
1
1
1
1
1
1
1
1
1
1
1
1
1
1
1
1
1
1
1
1
1
1
1
1
1
1
1
1
1
1
1
1
1
1
1
1
1
1
1
1
1
1
1
1
1
1
1
1
1
1
1
1
1
1
1
1
1
1
1
1
1
1
1
1
1
1
1
1
1
1
1
1
1
1
1
1
1
1
1
1
1
1
1
1
1
1
1
1
1
1
1
1
1
1
1
1
1
1
1
1
1
1
1
1
1
1
1
1
1
1
1
1
1
1
1
1
1
1
1
1
1
1
1
1
1
1
1
1
1
1
1
1
1
1
1
1
1
1
1
1
1
1
1
1
1
1
1
1
1
1
1
1
1
1
1
1
1
1
1
1
1
1
1
1
1
1
1
1
1
1
1
1
1
1
1
1
1
1
1
1
1
1
1
1
1
1
1
1
1
1
1
1
1
1
1
1
1
1
1
1
1
1
1
1
1
1
1
1
1
1
1
1
1
1
1
1
1
1
1
1
1
1
1
1
1
1
1
1
1
1
1
1
1
1
1
1
1
1
1
1
1
1
1
1
1
1
1
1
1
1
1
1
1
1
1
1
1
1
1
1
1
1
1
1
1
1
1
1
1
1
1
1
1
1
1
1
1
1
1
1
1
1
1
1
1
1
1
1
1
1
1
1
1
1
1
1
1
1
1
1
1
1
1
1
1
1
1
1
1
1
1
1
1
1
1
1
1
1
1
1
1
1
1
1
1
1
1
1
1
1
1
1
1
1
1
1
1
1
1
1
1
1
1
1
1
1
1
1
1
1
1
1
1
1
1
1
1
1
1
1
1
1
1
1
1
1
1
1
1
1
1
1
1
1
1
1
1
1
1
1
1
1
1
1
1
1
1
1
1
1
1
1
1
1
1
1
1
1
1
1
1
1
1
1
1
1
1
1
1
1
1
1
1
1
1
1
1
1
1
1
1
1
1
1
1
1
1
1
1
1
1
1
1
1
1
1
1
1
1
1
1
1
1
1
1
1
1
1
1
1
1
1
1
1
1
1
1
1
1
1
1
1
1
1
1
1
1
1
1
1
1
1
1
1
1
1
1
1
1
1
1
1
1
1
1
1
1
1
1
1
1
1
1
1
1
1
1
1
1
1
1
1
1
1
1
1
1
1
1
1
1
1
1
1
1
1
1
1
1
1
1
1
1
1
1
1
1
1
1
1
1
1
1
1
1
1
1
1
1
1
1
1
1
1
1
1
1
1
1
1
1
1
1
1
1
1
1
1
1
1
1
1
1
1
1
1
1
1
1
1
1
1
1
1
1
1
1
1
1
1
1
1
1
1
1
1
1
1
1
1
1
1
1
1
1
1
1
1
1
1
1
1
1
1
1
1
1
1
1
1
1
1
1
1
1
1
1
1
1
1
1
1
1
1
1
1
1
1
1
1
1
1
1
1
1
1
1
1
1
1
1
1
1
1
1
1
1
1
1
1
1
1
1
1
1
1
1
1
1
1
1
1
1
1
1
1
1
1
1
1
1
1
1
1
1
1
1
1
1
1
1
1
1
1
1
1
1
1
1
1
1
1
1
1
1
1
1
1
1
1
1
1
1
1
1
1
1
1
1
1
1
1
1
1
1
1
1
1
1
1
1
1
1
1
1
1
1
1
1
1
1
1
1
1
1
1
1
1
1
1
1
1
1
1
1
1
1
1
1
1
1
1
1
1
1
1
1
1
1
1
1
1
1
1
1
1
1
1
1
1
1
1
1
1
1
1
1
1
1
1
1
1
1
1
1
1
1
1
1
1
1
1
1
1
1
1
1
1
1
1
1
1
1
1
1
1
1
1
1
1
1
1
1
1
1
1
1
1
1
1
1
1
1
1
1
1
1
1
1
1
1
1
1
1
1
1
1
1
1
1
1
1
1
1
1
1
1
1
1
1
1
1
1
1
1
1
1
1
1
1
1
1
1
1
1
1
1
1
1
1
1
1
1
1
1
1
1
1
1
1
1
1
1
1
1
1
1
1
1
1
1
1
1
1
1
1
1
1
1
1
1
1
1
1
1
1
1
1
1
1
1
1
1
1
1
1
1
1
1
1
1
1
1
1
1
1
1
1
1
1
1
1
1
1
1
1
1
1
1
1
1
1
1
1
1
1
1
1
1
1
1
1
1
1
1
1
1
1
1
1
1
1
1
1
1
1
1
1
1
1
1
1
1
1
1
1
1
1
1
1
1
1
1
1
1
1
1
1
1
1
1
1
1
1
1
1
1
1
1
1
1
1
1
1
1
1
1
1
1
1
1
1
1
1
1
1
1
1
1
1
1
1
1
1
1
1
1
1
1
1
1
1
1
1
1
1
1
1
1
1
1
1
1
1
1
1
1
1
1
1
1
1
1
1
1
1
1
1
1
1
1
1
1
1
1
1
1
1
1
1
1
1
1
1
1
1
1
1
1
1
1
1
1
1
1
1
1
1
1
1
1
1
1
1
1
1
1
1
1
1
1
1
1
1
1
1
1
1
1
1
1
1
1
1
1
1
1
1
1
1
1
1
1
1
1
1
1
1
1
1
1
1
1
1
1
1
1
1
1
1
1
1
1
1
1
1
1
1
1
1
1
1
1
1
1
1
1
1
1
1
1
1
1
1
1
1
1
1
1
1
1
1
1
1
1
1
1
1
1
1
1
1
1
1
1
1
1
1
1
1
1
1
1
1
1
1
1
1
1
1
1
1
1
1
1
1
1
1
1
1
1
1
1
1
1
1
1
1
1
1
1
1
1
1
1
1
1
1
1
1
1
1
1
1
1
1
1
1
1
1
1
1
1
1
1
1
1
1
1
1
1
1
1
1
1
1
1
1
1
1
1
1
1
1
1
1
1
1
1
1
1
1
1
1
1
1
1
1
1
1
1
1
1
1
1
1
1
1
1
1
1
1
1
1
1
1
1
1
1
1
1
1
1
1
1
1
1
1
1
1
1
1
1
1
1
1
1
1
1
1
1
1
1
1
1
1
1
1
1
1
1
1
1
1
1
1
1
1
1
1
1
1
1
1
1
1
1
1
1
1
1
1
1
1
1
1
1
1
1
1
1
1
1
1
1
1
1
1
1
1
1
1
1
1
1
1
1
1
1
1
1
1
1
1
1
1
1
1
1
1
1
1
1
1
1
1
1
1
1
1
1
1
1
1
1
1
1
1
1
1
1
1
1
1
1
1
1
1
1
1
1
1
1
1
1
1
1
1
1
1
1
1
1
1
1
1
1
1
1
1
1
1
1
1
1
1
1
1
1
1
1
1
1
1
1
1
1
1
1
1
1
1
1
1
1
1
1
1
1
1
1
1
1
1
1
1
1
1
1
1
1
1
1
1
1
1
1
1
1
1
1
1
1
1
1
1
1
1
1
1
1
1
1
1
1
1
1
1
1
1
1
1
1
1
1
1
1
1
1
1
1
1
1
1
1
1
1
1
1
1
1
1
1
1
1
1
1
1
1
1
1
1
1
1
1
1
1
1
1
1
1
1
1
1
1
1
1
1
1
1
1
1
1
1
1
1
1
1
1
1
1
1
1
1
1
1
1
1
1
1
1
1
1
1
1
1
1
1
1
1
1
1
1
1
1
1
1
1
1
1
1
1
1
1
1
1
1
1
1
1
1
1
1
1
1
1
1
1
1
1
1
1
1
1
1
1
1
1
1
1
1
1
1
1
1
1
1
1
1
1
1
1
1
1
1
1
1
1
1
1
1
1
1
1
1
1
1
1
1
1
1
1
1
1
1
1
1
1
1
1
1
1
1
1
1
1
1
1
1
1
1
1
1
1
1
1
1
1
1
1
1
1
1
1
1
1
1
1
1
1
1
1
1
1
1
1
1
1
1
1
1
1
1
1
1
1
1
1
1
1
1
1
1
1
1
1
1
1
1
1
1
1
1
1
1
1
1
1
1
1
1
1
1
1
1
1
1
1
1
1
1
1
1
1
1
1
1
1
1
1
1
1
1
1
1
1
1
1
1
1
1
1
1
1
1
1
1
1
1
1
1
1
1
1
1
1
1
1
1
1
1
1
1
1
1
1
1
1
1
1
1
1
1
1
1
1
1
1
1
1
1
1
1
1
1
1
1
1
1
1
1
1
1
1
1
1
1
1
1
1
1
1
1
1
1
1
1
1
1
1
1
1
1
1
1
1
1
1
1
1
1
1
1
1
1
1
1
1
1
1
1
1
1
1
1
1
1
1
1
1
1
1
1
1
1
1
1
1
1
1
1
1
1
1
1
1
1
1
1
1
1
1
1
1
1
1
1
1
1
1
1
1
1
1
1
1
1
1
1
1
1
1
1
1
1
1
1
1
1
1
1
1
1
1
1
1
1
1
1
1
1
1
1
1
1
1
1
1
1
1
1
1
1
1
1
1
1
1
1
1
1
1
1
1
1
1
1
1
1
1
1
1
1
1
1
1
1
1
1
1
1
1
1
1
1
1
1
1
1
1
1
1
1
1
1
1
1
1
1
1
1
1
1
1
1
1
1
1
1
1
1
1
1
1
1
1
1
1
1
1
1
1
1
1
1
1
1
1
1
1
1
1
1
1
1
1
1
1
1
1
1
1
1
1
1
1
1
1
1
1
1
1
1
1
1
1
1
1
1
1
1
1
1
1
1
1
1
1
1
1
1
1
1
1
1
1
1
1
1
1
1
1
1
1
1
1
1
1
1
1
1
1
1
1
1
1
1
1
1
1
1
1
1
1
1
1
1
1
1
1
1
1
1
1
1
1
1
1
1
1
1
1
1
1
1
1
1
1
1
1
1
1
1
1
1
1
1
1
1
1
1
1
1
1
1
1
1
1
1
1
1
1
1
1
1
1
1
1
1
1
1
1
1
1
1
1
1
1
1
1
1
1
1
1
1
1
1
1
1
1
1
1
1
1
1
1
1
1
1
1
1
1
1
1
1
1
1
1
1
1
1
1
1
1
1
1
1
1
1
1
1
1
1
1
1
1
1
1
1
1
1
1
1
1
1
1
1
1
1
1
1
1
1
1
1
1
1
1
1
1
1
1
1
1
1
1
1
1
1
1
1
1
1
1
1
1
1
1
1
1
1
1
1
1
1
1
1
1
1
1
1
1
1
1
1
1
1
1
1
1
1
1
1
1
1
1
1
1
1
1
1
1
1
1
1
1
1
1
1
1
1
1
1
1
1
1
1
1
1
1
1
1
1
1
1
1
1
1
1
1
1
1
1
1
1
1
1
1
1
1
1
1
1
1
1
1
1
1
1
1
1
1
1
1
1
1
1
1
1
1
1
1
1
1
1
1
1
1
1
1
1
1
1
1
1
1
1
1
1
1
1
1
1
1
1
1
1
1
1
1
1
1
1
1
1
1
1
1
1
1
1
1
1
1
1
1
1
1
1
1
1
1
1
1
1
1
1
1
1
1
1
1
1
1
1
1
1
1
1
1
1
1
1
1
1
1
1
1
1
1
1
1
1
1
1
1
1
1
1
1
1
1
1
1
1
1
1
1
1
1
1
1
1
1
1
1
1
1
1
1
1
1
1
1
1
1
1
1
1
1
1
1
1
1
1
1
1
1
1
1
1
1
1
1
1
1
1
1
1
1
1
1
1
1
1
1
1
1
1
1
1
1
1
1
1
1
1
1
1
1
1
1
1
1
1
1
1
1
1
1
1
1
1
1
1
1
1
1
1
1
1
1
1
1
1
1
1
1
1
1
1
1
1
1
1
1
1
1
1
1
1
1
1
1
1
1
1
1
1
1
1
1
1
1
1
1
1
1
1
1
1
1
1
1
1
1
1
1
1
1
1
1
1
1
1
1
1
1
1
1
1
1
1
1
1
1
1
1
1
1
1
1
1
1
1
1
1
1
1
1
1
1
1
1
1
1
1
1
1
1
1
1
1
1
1
1
1
1
1
1
1
1
1
1
1
1
1
1
1
1
1
1
1
1
1
1
1
1
1
1
1
1
1
1
1
1
1
1
1
1
1
1
1
1
1
1
1
1
1
1
1
1
1
1
1
1
1
1
1
1
1
1
1
1
1
1
1
1
1
1
1
1
1
1
1
1
1
1
1
1
1
1
1
1
1
1
1
1
1
1
1
1
1
1
1
1
1
1
1
1
1
1
1
1
1
1
1
1
1
1
1
1
1
1
1
1
1
1
1
1
1
1
1
1
1
1
1
1
1
1
1
1
1
1
1
1
1
1
1
1
1
1
1
1
1
1
1
1
1
1
1
1
1
1
1
1
1
1
1
1
1
1
1
1
1
1
1
1
1
1
1
1
1
1
1
1
1
1
1
1
1
1
1
1
1
1
1
1
1
1
1
1
1
1
1
1
1
1
1
1
1
1
1
1
1
1
1
1
1
1
1
1
1
1
1
1
1
1
1
1
1
1
1
1
1
1
1
1
1
1
1
1
1
1
1
1
1
1
1
1
1
1
1
1
1
1
1
1
1
1
1
1
1
1
1
1
1
1
1
1
1
1
1
1
1
1
1
1
1
1
1
1
1
1
1
1
1
1
1
1
1
1
1
1
1
1
1
1
1
1
1
1
1
1
1
1
1
1
1
1
1
1
1
1
1
1
1
1
1
1
1
1
1
1
1
1
1
1
1
1
1
1
1
1
1
1
1
1
1
1
1
1
1
1
1
1
1
1
1
1
1
1
0.999998
1
1
1
1
1
1
1
1
1
1
1
1
1
1
1
1
1
1
0.999998
0.999998
1
1
1
1
1
1
1
1
1
1
1
1
1
1
1
1
1
1
0.999998
1
0.999999
1
1
1
1
1
1
1
1
1
1
1
1
1
1
1
1
0.999999
1
0.999995
0.999998
1
1
1
1
1
1
1
1
1
1
1
1
1
1
1
1
0.999998
0.999995
0.999956
0.999999
1
1
1
1
1
1
1
1
1
1
1
1
1
1
1
1
0.999999
0.999956
0.999962
0.999994
1
1
1
1
1
1
1
1
1
1
1
1
1
1
1
1
0.999994
0.999962
1
0.99996
1
1
1
1
1
1
1
1
1
1
1
1
1
1
1
1
0.999961
1
0.999999
0.999958
1
1
1
1
1
1
1
1
1
1
1
1
1
1
1
1
0.999958
0.999999
0.999999
0.999958
0.999995
1
1
1
1
1
1
1
1
1
1
1
1
1
1
0.999995
0.999958
0.999999
1
0.99999
0.999966
1
1
1
1
1
1
1
1
1
1
1
1
1
1
0.999966
0.999989
1
1
1
0.999962
1
1
1
1
1
1
1
1
1
1
1
1
1
1
0.999962
1
1
1
1
0.999962
0.999997
1
1
1
1
1
1
1
1
1
1
1
1
0.999997
0.999962
1
1
1
1
0.999992
0.999977
1
1
1
1
1
1
1
1
1
1
1
1
0.999978
0.999991
1
1
1
1
1
0.999972
0.999999
1
1
1
1
1
1
1
1
1
1
1
0.999972
1
1
1
1
1
1
0.999972
0.999997
1
1
1
1
1
1
1
1
1
1
0.999997
0.999972
1
1
1
1
1
1
0.999993
0.999985
0.999999
1
1
1
1
1
1
1
1
0.999999
0.999986
0.999991
1
1
1
1
1
1
1
0.999983
0.999998
1
1
1
1
1
1
1
1
0.999999
0.999983
1
1
1
1
1
1
0.999999
1
0.999983
0.999998
1
1
1
1
1
1
1
1
0.999999
0.999983
1
0.999999
1
1
1
1
1
1
0.999997
1
1
1
1
1
1
1
1
1
1
0.999995
1
1
1
1
1
1
1
1
1
1
0.999996
1
1
1
1
1
1
0.999998
1
1
1
1
1
1
1
1
0.999984
0.999824
0.999961
0.999956
0.999989
1
1
1
1
1
1
0.99999
0.999965
0.999976
0.999866
0.999992
1
1
0.999977
0.999798
0.999577
0.999402
0.999637
0.999897
0.999991
1
1
1
1
1
1
0.999989
0.999912
0.999697
0.999403
0.999618
0.999834
0.999979
0.999923
0.999402
0.999402
0.999402
0.999581
0.999929
0.999993
0.999997
1
1
1
1
0.999997
0.99999
0.999936
0.999604
0.999403
0.999403
0.999403
0.999923
0.9999
0.999547
0.999549
0.999749
0.999991
0.999998
0.999993
0.999992
0.999997
1
1
0.999998
0.999992
0.999992
0.999996
0.999967
0.999696
0.999472
0.999469
0.999898
0.999875
1
1
1
1
1
1
0.999992
0.999994
1
1
0.999994
0.999992
1
1
1
1
1
0.999997
0.999872
0.999977
1
0.999999
0.999997
0.999998
1
1
0.999998
0.999994
0.999999
0.999999
0.999994
0.999998
1
1
0.999999
0.999999
1
1
0.999967
1
0.999993
0.999972
0.999962
0.999978
1
1
1
0.999997
0.999999
0.999999
0.999997
1
1
1
0.999986
0.999971
0.999977
0.999996
1
1
0.999974
0.99996
0.99996
0.999976
1
1
1
1
0.999999
0.999999
1
1
1
1
0.99998
0.999961
0.999961
0.999974
1
1
0.999987
0.999992
0.999996
1
1
1
1
1
0.999999
0.999999
1
1
1
1
0.999998
0.99999
0.999982
0.999977
1
1
1
1
1
1
1
1
1
1
0.999999
0.999999
1
1
1
1
1
1
1
1
1
1
1
1
1
1
1
1
1
1
0.999999
0.999999
1
1
1
1
1
1
1
1
1
0.999987
1
1
1
1
1
1
1
1
1
1
1
1
1
1
1
1
1
1
0.999996
0.99996
1
1
1
1
1
1
1
0.956579
0.94824
0.949763
0.987113
1
1
1
1
1
1
1
0.999973
0.999976
1
1
0.962646
0.833008
0.633669
0.370216
0.207701
0.120612
0.090464
0.0974957
0.141253
0.277756
0.470554
0.714345
0.866933
0.981468
1
1
0.999963
0.999999
1
0.817689
0.520428
0.183434
0.0236382
0.00467872
1.67116e-31
1.12088e-30
5.64732e-31
1.32074e-30
-2.72628e-30
-2.08689e-22
0.00599326
0.0725046
0.287456
0.597444
0.884712
1
0.999992
1
0.682235
0.232195
0.00230064
3.00139e-21
1.14817e-30
-8.50955e-31
7.08513e-13
8.5138e-12
3.5224e-11
2.70398e-11
7.58724e-12
1.65051e-12
3.48728e-32
-3.26529e-34
6.19e-20
0.0567047
0.325806
0.788936
1
0.583584
0.0334916
6.31851e-19
1.52146e-32
2.02217e-34
1.05847e-13
3.88807e-12
1.41006e-11
3.96719e-11
6.28018e-11
3.91859e-11
2.0311e-11
6.19774e-12
3.21575e-13
7.51662e-16
-3.58875e-21
-2.15539e-22
-2.57352e-19
0.107523
0.701378
0.00763909
2.07027e-13
2.0209e-13
3.19944e-13
9.16925e-13
5.57884e-12
1.57165e-11
3.59259e-11
6.00178e-11
6.93959e-11
3.78871e-11
2.56894e-11
1.63522e-11
6.83416e-12
1.62184e-12
2.8077e-13
2.48836e-14
2.86269e-13
2.52415e-13
0.0457593
6.89342e-21
4.02488e-13
2.92502e-12
4.31464e-12
4.99951e-12
6.7345e-12
8.55334e-12
2.54132e-11
5.76722e-11
7.32321e-11
2.06397e-11
6.83536e-12
6.62601e-12
6.37489e-12
5.40354e-12
3.96778e-12
3.30072e-12
2.19855e-12
2.52258e-13
-2.20306e-19
6.76775e-16
6.7275e-15
3.56471e-13
2.00222e-12
3.85984e-12
4.44881e-12
4.53428e-12
1.34781e-11
5.25318e-11
8.36559e-11
1.80261e-11
2.71221e-12
3.66182e-12
3.69787e-12
3.53804e-12
2.61029e-12
1.17777e-12
1.80225e-13
2.33381e-15
2.362e-16
1.2089e-15
1.20842e-15
3.22802e-14
3.64823e-13
1.55759e-12
2.71204e-12
3.14848e-12
6.82015e-12
4.56706e-11
9.72082e-11
2.0046e-11
2.00004e-12
2.80533e-12
2.4098e-12
1.39741e-12
6.61786e-13
2.49136e-13
2.27578e-14
4.80362e-16
4.79252e-16
1.44792e-14
1.20842e-15
2.14497e-14
1.50445e-13
7.84766e-13
2.01191e-12
2.35762e-12
4.08644e-12
4.10351e-11
1.12397e-10
2.55994e-11
1.78382e-12
2.27008e-12
1.83223e-12
7.26693e-13
3.04677e-13
1.59712e-13
1.44093e-14
4.83024e-16
6.81121e-15
5.47408e-14
3.11721e-15
2.84105e-14
1.16442e-13
5.84998e-13
1.82457e-12
1.8658e-12
3.1815e-12
4.33334e-11
1.32019e-10
3.3634e-11
1.78632e-12
1.8966e-12
1.65345e-12
5.64796e-13
1.92122e-13
1.32372e-13
2.53948e-14
4.84208e-16
4.7844e-14
4.63424e-14
2.27627e-14
4.16674e-14
1.32465e-13
1.04589e-12
1.8158e-12
1.44815e-12
3.03526e-12
5.34397e-11
1.5814e-10
4.49608e-11
1.80098e-12
1.51581e-12
1.61096e-12
6.62101e-13
1.56328e-13
7.79888e-14
3.68604e-14
1.25131e-14
3.37446e-14
1.59104e-13
1.04311e-13
1.39711e-13
4.92366e-13
1.48893e-12
1.65716e-12
1.08398e-12
4.58964e-12
7.40013e-11
1.97104e-10
5.92495e-11
1.88182e-12
1.2476e-12
1.5518e-12
9.88234e-13
2.56819e-13
6.7152e-14
2.86128e-14
1.47452e-14
1.02622e-13
8.84854e-13
4.08506e-13
5.47702e-13
1.17944e-12
1.42524e-12
8.46139e-13
9.36028e-13
8.38315e-12
1.07302e-10
2.63509e-10
8.08206e-11
2.89668e-12
1.20684e-12
1.2103e-12
1.14745e-12
5.44667e-13
1.52424e-13
6.79894e-14
4.48853e-14
3.15969e-13
6.1552e-13
3.40397e-13
6.75473e-13
8.9282e-13
5.15083e-13
5.63763e-13
2.27353e-12
1.56456e-11
1.61021e-10
3.99827e-10
1.20737e-10
6.25551e-12
1.52777e-12
8.70136e-13
1.05469e-12
8.61791e-13
3.48884e-13
1.83679e-13
1.4903e-13
3.04189e-13
4.97637e-14
5.80561e-14
2.45895e-13
1.76758e-13
2.09744e-13
1.51824e-12
8.49746e-12
2.65662e-11
2.57072e-10
7.02875e-10
2.00994e-10
1.11161e-11
5.68868e-12
9.30637e-13
6.18344e-13
6.86673e-13
4.96652e-13
2.15125e-13
1.31711e-13
1.26571e-13
1.63209e-13
1.83738e-13
1.83108e-13
2.90474e-13
2.13177e-12
8.28019e-12
1.59138e-11
4.21567e-11
4.57547e-10
1.21641e-09
3.81497e-10
1.94399e-11
1.22606e-11
4.59894e-12
7.64212e-13
3.16764e-13
2.83305e-13
1.55635e-13
3.31451e-14
1.91088e-15
1.17204e-10
1.01211e-11
1.73572e-12
4.79537e-12
1.0153e-11
1.51167e-11
1.92366e-11
8.38705e-11
8.5472e-10
1.66364e-09
7.70115e-10
4.97193e-11
1.59012e-11
1.3061e-11
5.89377e-12
1.77026e-12
4.27149e-13
2.16313e-13
9.65541e-13
2.15418e-11
1.75424e-09
5.96672e-11
1.36872e-11
1.53552e-11
1.61652e-11
1.67899e-11
1.94799e-11
1.96029e-10
1.37235e-09
1.75946e-09
1.33276e-09
2.09078e-10
1.68491e-11
1.73804e-11
1.35018e-11
1.00127e-11
6.24092e-12
3.69961e-12
2.90422e-11
1.14666e-09
3.50271e-09
9.48717e-11
2.63559e-11
1.97862e-11
1.62173e-11
1.25233e-11
1.89782e-11
3.44533e-10
1.6913e-09
1.75947e-09
1.7075e-09
6.10206e-10
1.74728e-11
1.75909e-11
1.55283e-11
1.61489e-11
1.77312e-11
2.06583e-11
9.52105e-11
3.73711e-09
9.9304e-10
6.52042e-11
2.67016e-11
1.48813e-11
7.58884e-12
6.74818e-12
2.34075e-11
4.37304e-10
1.75079e-09
1.74617e-09
1.74637e-09
1.01625e-09
2.421e-11
1.63198e-11
9.78234e-12
1.47787e-11
2.06798e-11
3.15731e-11
9.07335e-11
1.44701e-09
9.69488e-35
1.0913e-11
8.60164e-12
3.50029e-12
1.5141e-12
5.41541e-12
3.91965e-11
4.59314e-10
1.72152e-09
1.09729e-09
1.35411e-09
1.16182e-09
6.02445e-11
1.61878e-11
4.10423e-12
4.04406e-12
8.92095e-12
1.76363e-11
1.97436e-11
6.53689e-12
9.88637e-16
5.74276e-13
4.71535e-13
2.53116e-13
3.56187e-13
6.43613e-12
5.80661e-11
4.06584e-10
1.11263e-09
3.56744e-10
5.51436e-10
1.10405e-09
1.26203e-10
2.70627e-11
3.42736e-12
4.10286e-13
6.19199e-13
1.04843e-12
1.09419e-12
1.0141e-33
6.26359e-18
2.67888e-15
1.50787e-14
1.35685e-14
2.66441e-13
8.76335e-12
7.21609e-11
2.82775e-10
3.5162e-10
1.27977e-10
1.91335e-10
6.65992e-10
1.57496e-10
4.29933e-11
4.79646e-12
1.40899e-13
2.47356e-14
2.42218e-14
2.83629e-15
8.04145e-19
1.79342e-24
1.32316e-20
3.73377e-17
6.97798e-16
2.66162e-13
9.70441e-12
7.76469e-11
1.98719e-10
8.56454e-11
5.3956e-11
6.81616e-11
1.60493e-10
1.63216e-10
5.27944e-11
5.94443e-12
1.35454e-13
3.82404e-16
4.17836e-17
6.97393e-25
1.5587e-24
7.19175e-30
3.87806e-25
1.90082e-20
4.11223e-16
2.52279e-13
9.86698e-12
7.75736e-11
1.47453e-10
2.53119e-11
1.91949e-11
2.02655e-11
3.90858e-11
1.61134e-10
5.58748e-11
6.18965e-12
1.40597e-13
1.20065e-16
5.2854e-21
6.97113e-25
5.29492e-30
9.19181e-32
4.95201e-26
8.55961e-21
2.4171e-16
1.64048e-13
8.90678e-12
6.39584e-11
9.92499e-11
1.03674e-11
5.89732e-12
5.98568e-12
1.81401e-11
1.33727e-10
5.32162e-11
5.98277e-12
1.02335e-13
7.92243e-17
8.55535e-22
4.4146e-27
9.66741e-33
4.25325e-32
1.92083e-26
2.42578e-21
7.37289e-17
7.92106e-14
5.96399e-12
3.98074e-11
5.16053e-11
5.71094e-12
2.53291e-12
2.59404e-12
9.56388e-12
6.47017e-11
3.71553e-11
4.35004e-12
4.45258e-14
2.58339e-17
3.52247e-22
2.17915e-27
4.94974e-33
1.05525e-32
3.52517e-27
3.61384e-22
1.62709e-17
3.17131e-14
3.11513e-12
1.92911e-11
2.06404e-11
4.05886e-12
1.89144e-12
1.92781e-12
5.25176e-12
2.23256e-11
1.88137e-11
2.319e-12
1.56021e-14
5.50455e-18
7.69683e-23
5.86204e-28
1.72709e-33
1.80462e-33
5.18096e-28
5.00773e-23
2.87718e-18
1.0584e-14
1.28551e-12
7.54102e-12
7.03285e-12
3.45082e-12
1.76649e-12
1.79937e-12
3.71811e-12
7.20798e-12
7.54139e-12
9.8429e-13
4.77614e-15
9.12342e-19
1.34443e-23
1.1165e-28
4.05024e-34
1.84362e-34
5.14435e-29
5.40877e-24
4.03625e-19
2.77984e-15
3.99798e-13
2.34651e-12
2.36697e-12
3.16306e-12
1.68902e-12
1.71986e-12
3.18576e-12
2.3765e-12
2.3786e-12
3.13549e-13
1.21504e-15
1.04361e-19
1.39932e-24
1.24786e-29
5.08954e-35
8.65056e-36
2.74809e-30
3.89267e-25
4.58228e-20
5.29758e-16
8.93947e-14
5.69195e-13
1.03534e-12
2.8945e-12
1.49263e-12
1.51883e-12
2.86594e-12
1.00344e-12
5.76275e-13
7.14799e-14
2.39739e-16
9.828e-21
8.98399e-26
7.32603e-31
2.83884e-36
2.27289e-37
1.13194e-31
2.56692e-26
4.2838e-21
7.02951e-17
1.38237e-14
1.03945e-13
6.33105e-13
2.45622e-12
1.14039e-12
1.15049e-12
2.44697e-12
6.0467e-13
1.0382e-13
1.14049e-14
3.46493e-17
9.51412e-22
5.1083e-27
2.63706e-32
6.94847e-38
7.78229e-39
5.30114e-33
1.46632e-27
2.69019e-22
5.81003e-18
1.39742e-15
1.50004e-14
4.20306e-13
1.80958e-12
7.42656e-13
7.46373e-13
1.80934e-12
4.05073e-13
1.45737e-14
1.20652e-15
3.17079e-18
7.35363e-23
3.38555e-28
1.29697e-33
2.34527e-39
2.37636e-40
1.62769e-34
4.44664e-29
8.03057e-24
2.45507e-19
8.31987e-17
2.22359e-15
2.35532e-13
1.11047e-12
4.01685e-13
4.03305e-13
1.10756e-12
2.30656e-13
2.07782e-15
7.57501e-17
1.47455e-19
2.80493e-24
1.40938e-29
5.46031e-35
9.48664e-41
-6.19606e-43
1.78923e-36
4.52997e-31
6.78158e-26
3.52214e-21
2.39708e-18
5.24855e-16
9.99453e-14
5.54878e-13
1.75347e-13
1.75659e-13
5.52853e-13
9.8859e-14
4.85558e-16
2.27213e-18
2.36189e-21
3.38187e-26
2.0799e-31
8.14308e-37
-1.23953e-42
-1.2801e-40
-3.24245e-40
8.74056e-34
1.11525e-28
6.63745e-24
2.63051e-20
1.604e-16
3.26938e-14
2.21902e-13
6.09773e-14
6.09561e-14
2.21139e-13
3.2555e-14
1.51993e-16
2.57248e-20
5.32079e-24
7.47952e-29
5.15492e-34
-8.17068e-57
-2.55834e-40
-1.06681e-40
-3.00616e-38
1.74379e-37
3.71327e-32
7.4462e-27
1.56934e-21
3.87196e-17
8.33594e-15
7.00002e-14
1.66731e-14
1.66321e-14
6.97621e-14
8.3645e-15
3.81105e-17
1.5978e-21
6.89823e-27
3.1071e-32
1.3034e-37
-6.34649e-38
-2.16828e-40
-3.63137e-41
-1.41028e-38
7.40542e-39
3.85064e-33
1.34915e-27
3.17252e-22
6.60961e-18
1.61196e-15
1.71374e-14
3.51135e-15
3.4973e-15
1.7081e-14
1.63176e-15
6.60962e-18
3.26672e-22
1.34742e-27
3.73787e-33
6.912e-39
-2.70253e-38
-7.18208e-41
-1.00728e-41
-5.12682e-39
1.14177e-39
6.00151e-34
1.87586e-28
3.80758e-23
8.43206e-19
2.27404e-16
3.18022e-15
5.53722e-16
5.5052e-16
3.1713e-15
2.32668e-16
8.51271e-19
4.11111e-23
1.97402e-28
6.2199e-34
1.22552e-39
-9.69762e-39
-2.0232e-41
-2.55452e-42
-1.71138e-39
4.91167e-41
4.96019e-35
1.6132e-29
3.35166e-24
7.6601e-20
2.2306e-17
4.31752e-16
6.2595e-17
6.21216e-17
4.30814e-16
2.31513e-17
7.76132e-20
3.65879e-24
1.74051e-29
5.34405e-35
9.82854e-41
-3.21077e-39
-5.2509e-42
-6.11754e-43
-5.3914e-40
-1.06477e-41
2.53235e-36
8.82547e-31
1.87052e-25
4.37354e-21
1.40287e-18
4.05373e-17
4.72819e-18
4.68165e-18
4.04852e-17
1.48881e-18
4.43476e-21
2.05299e-25
9.80333e-31
2.86727e-36
-1.21832e-40
-1.00601e-39
-1.29092e-42
-1.40763e-43
-1.62738e-40
-4.69059e-40
5.66875e-38
2.29578e-32
5.24354e-27
1.31224e-22
4.96285e-20
2.39441e-18
2.11214e-19
2.08369e-19
2.39422e-18
5.4828e-20
1.33161e-22
5.74975e-27
2.63706e-32
6.8932e-38
-1.12756e-39
-3.03032e-40
-3.05479e-43
-3.14819e-44
-4.75611e-41
-5.43458e-40
-8.60265e-41
1.79433e-34
4.62776e-29
1.40759e-24
8.25874e-22
7.46495e-20
4.40561e-21
4.31158e-21
7.4774e-20
9.85977e-22
1.43681e-24
5.02802e-29
2.15415e-34
1.88888e-56
-1.20687e-39
-8.86272e-41
-7.02549e-44
-6.8668e-45
-1.34253e-41
-2.97762e-40
-3.21682e-39
2.21108e-37
6.55809e-32
3.03821e-27
5.63965e-24
8.5513e-22
2.74834e-23
2.62875e-23
8.58957e-22
7.42987e-24
3.18066e-27
6.99612e-32
2.82955e-37
-5.73861e-39
-6.45798e-40
-2.5047e-41
-1.57347e-44
-1.47106e-45
-3.68691e-42
-1.49979e-40
-3.42699e-39
-5.68828e-39
1.172e-35
8.28688e-31
1.00085e-26
2.04598e-24
3.10367e-26
2.79582e-26
2.06343e-24
1.41399e-26
9.7567e-31
1.29725e-35
-3.8204e-39
-6.51432e-39
-3.22529e-40
-6.90503e-42
-3.45081e-45
-3.10947e-46
-9.8904e-43
-7.14412e-41
-2.44265e-39
-9.68911e-39
-5.03993e-40
5.0857e-35
2.41314e-30
6.15742e-28
4.63229e-30
3.71706e-30
6.24034e-28
3.5807e-30
7.55331e-35
-1.93882e-39
-1.85593e-38
-4.62615e-39
-1.5275e-40
-1.86554e-42
-7.43479e-46
-6.50203e-47
-2.60234e-43
-3.27212e-41
-1.62768e-39
-8.33552e-39
-5.99732e-39
8.45079e-40
1.10002e-34
3.4321e-32
2.30277e-34
1.84984e-34
3.4814e-32
1.68922e-34
1.72284e-40
-1.13614e-38
-1.58424e-38
-3.07137e-39
-6.97443e-41
-4.96454e-43
-1.57933e-46
-1.34621e-47
-6.74567e-44
-1.4512e-41
-1.03213e-39
-6.65956e-39
-5.83072e-39
-1.695e-39
4.41552e-39
1.8648e-36
1.14481e-38
9.27624e-39
1.89296e-36
6.78998e-39
-3.2947e-39
-1.10794e-38
-1.26168e-38
-1.94203e-39
-3.08894e-41
-1.30847e-43
-3.31848e-47
-2.76418e-48
-1.73126e-44
-6.26007e-42
-6.29113e-40
-5.06052e-39
-5.23926e-39
-1.8014e-39
-5.32978e-40
-2.98118e-41
-4.12838e-41
-7.83584e-41
-1.13189e-40
-1.00128e-39
-3.43339e-39
-9.92345e-39
-9.56259e-39
-1.18097e-39
-1.33225e-41
-3.43584e-44
-6.92346e-48
-5.65015e-49
-4.42492e-45
-2.63477e-42
-3.70899e-40
-3.69306e-39
-4.47576e-39
-1.72307e-39
-5.51223e-40
-1.58518e-40
-4.85063e-41
-8.87432e-41
-2.9212e-40
-1.02967e-39
-3.27351e-39
-8.45499e-39
-6.96341e-39
-6.9485e-40
-5.61092e-42
-9.04392e-45
-1.43954e-48
-1.15462e-49
-1.13365e-45
-1.08451e-42
-2.12369e-40
-2.60439e-39
-3.66889e-39
-1.57128e-39
-5.35918e-40
-1.64074e-40
-4.93274e-41
-9.00472e-41
-3.01347e-40
-9.98812e-40
-2.9783e-39
-6.91533e-39
-4.90135e-39
-3.97142e-40
-2.31234e-42
-2.40021e-45
-2.99431e-49
-2.36889e-50
-2.9307e-46
-4.37385e-43
-1.18434e-40
-1.78224e-39
-2.90366e-39
-1.37773e-39
-5.00315e-40
-1.61393e-40
-4.81009e-41
-8.76493e-41
-2.95772e-40
-9.30689e-40
-2.60627e-39
-5.46232e-39
-3.34834e-39
-2.21111e-40
-9.34018e-43
-6.45214e-46
-6.25545e-50
-4.89788e-51
-7.68936e-47
-1.7311e-43
-6.44634e-41
-1.18699e-39
-2.22816e-39
-1.16777e-39
-4.51164e-40
-1.52535e-40
-4.52749e-41
-8.23719e-41
-2.79014e-40
-8.3784e-40
-2.20517e-39
-4.18421e-39
-2.22649e-39
-1.20162e-40
-3.70293e-43
-1.76155e-46
-1.31849e-50
-1.02521e-51
-2.05547e-47
-6.733e-44
-3.42996e-41
-7.71078e-40
-1.66291e-39
-9.60496e-40
-3.94584e-40
-1.39358e-40
-4.13271e-41
-7.50861e-41
-2.54493e-40
-7.31636e-40
-1.81079e-39
-3.1177e-39
-1.44418e-39
-6.38396e-41
-1.4426e-43
-4.88556e-47
-2.81476e-51
-2.18098e-52
-5.60477e-48
-2.57664e-44
-1.78627e-41
-4.89376e-40
-1.2098e-39
-7.68782e-40
-3.357e-40
-1.23585e-40
-3.67069e-41
-6.6608e-41
-2.25351e-40
-6.21558e-40
-1.44713e-39
-2.26477e-39
-9.15272e-40
-3.31984e-41
-5.5288e-44
-1.37355e-47
-6.10156e-52
-4.72931e-53
-1.55652e-48
-9.71282e-45
-9.11433e-42
-3.03847e-40
-8.59526e-40
-6.00103e-40
-2.78457e-40
-1.067e-40
-3.18039e-41
-5.76436e-41
-1.94294e-40
-5.1487e-40
-1.12798e-39
-1.60676e-39
-5.67508e-40
-1.69153e-41
-2.08644e-44
-3.90111e-48
-1.34396e-52
-1.04591e-53
-4.38733e-49
-3.61028e-45
-4.56029e-42
-1.84759e-40
-5.97204e-40
-4.57628e-40
-2.256e-40
-8.98923e-41
-2.69322e-41
-4.87597e-41
-1.63477e-40
-4.16597e-40
-8.58992e-40
-1.11487e-39
-3.44631e-40
-8.45173e-42
-7.7595e-45
-1.11478e-48
-3.00446e-53
-2.35706e-54
-1.24946e-49
-1.32462e-45
-2.23905e-42
-1.10125e-40
-4.06268e-40
-3.41407e-40
-1.78785e-40
-7.40321e-41
-2.23247e-41
-4.03749e-41
-1.34468e-40
-3.29739e-40
-6.39991e-40
-7.57445e-40
-2.05156e-40
-4.14402e-42
-2.8461e-45
-3.19221e-49
-6.78885e-54
-5.40499e-55
-3.58032e-50
-4.80245e-46
-1.07947e-42
-6.43917e-41
-2.70865e-40
-2.49463e-40
-1.3876e-40
-5.96875e-41
-1.81366e-41
-3.27669e-41
-1.08287e-40
-2.55614e-40
-4.67043e-40
-5.0437e-40
-1.19811e-40
-1.99518e-42
-1.03033e-45
-9.12593e-50
-1.54265e-54
-1.25607e-55
-1.02927e-50
-1.72225e-46
-5.11306e-43
-3.696e-41
-1.77136e-40
-1.78708e-40
-1.05581e-40
-4.7166e-41
-1.44553e-41
-2.60901e-41
-8.54734e-41
-1.94271e-40
-3.34165e-40
-3.29443e-40
-6.86878e-41
-9.4377e-43
-3.68403e-46
-2.59731e-50
-3.50956e-55
-2.94268e-56
-2.96257e-51
-6.11524e-47
-2.38059e-43
-2.08377e-41
-1.13708e-40
-1.25617e-40
-7.88292e-41
-3.65672e-41
-1.1313e-41
-2.03987e-41
-6.61945e-41
-1.44885e-40
-2.34612e-40
-2.11231e-40
-3.86805e-41
-4.38824e-43
-1.30198e-46
-7.34938e-51
-7.99227e-56
-6.96053e-57
-8.52686e-52
-2.15176e-47
-1.08999e-43
-1.15455e-41
-7.16934e-41
-8.67045e-41
-5.77965e-41
-2.78381e-41
-8.70005e-42
-1.56724e-41
-5.03401e-41
-1.06113e-40
-1.6175e-40
-1.33032e-40
-2.14074e-41
-2.00656e-43
-4.55112e-47
-2.06744e-51
-1.82447e-56
-1.66341e-57
-2.44981e-52
-7.50778e-48
-4.90984e-44
-6.28974e-42
-4.44247e-41
-5.88032e-41
-4.16415e-41
-2.08253e-41
-6.57868e-42
-1.18399e-41
-3.76204e-41
-7.63726e-41
-1.09577e-40
-8.23425e-41
-1.16494e-41
-9.0267e-44
-1.57458e-47
-5.78145e-52
-4.17055e-57
-3.98597e-58
-7.00826e-53
-2.59854e-48
-2.17664e-44
-3.37052e-42
-2.70675e-41
-3.92083e-41
-2.95002e-41
-1.53189e-41
-4.89405e-42
-8.80006e-42
-2.76457e-41
-5.40495e-41
-7.29832e-41
-5.01168e-41
-6.23588e-42
-3.99659e-44
-5.39516e-48
-1.60743e-52
-9.55015e-58
-9.54386e-59
-1.99325e-53
-8.92334e-49
-9.5002e-45
-1.77739e-42
-1.62238e-41
-2.57157e-41
-2.05605e-41
-1.10864e-41
-3.58366e-42
-6.43808e-42
-1.99881e-41
-3.76328e-41
-4.78171e-41
-3.00079e-41
-3.28492e-42
-1.74215e-44
-1.83163e-48
-4.44447e-53
-2.19487e-58
-2.2904e-59
-5.63546e-54
-3.04019e-49
-4.08362e-45
-9.22682e-43
-9.57031e-42
-1.65983e-41
-1.41046e-41
-7.89765e-42
-2.58406e-42
-4.63824e-42
-1.42257e-41
-2.57913e-41
-3.0832e-41
-1.76835e-41
-1.70351e-42
-7.47924e-45
-6.16288e-49
-1.22216e-53
-5.06261e-59
-5.52846e-60
-1.58307e-54
-1.02771e-49
-1.72925e-45
-4.71688e-43
-5.55826e-42
-1.05479e-41
-9.52806e-42
-5.54048e-42
-1.83556e-42
-3.2919e-42
-9.97064e-42
-1.74062e-41
-1.95733e-41
-1.026e-41
-8.69979e-43
-3.16329e-45
-2.05555e-49
-3.34197e-54
-1.17092e-59
-1.33587e-60
-4.41391e-55
-3.4449e-50
-7.21592e-46
-2.37537e-43
-3.17943e-42
-6.60188e-42
-6.34067e-42
-3.82926e-42
-1.28493e-42
-2.30246e-42
-6.88495e-42
-1.15726e-41
-1.22388e-41
-5.86322e-42
-4.37678e-43
-1.31842e-45
-6.79634e-50
-9.08218e-55
-2.69197e-60
-3.17179e-61
-1.22e-55
-1.14443e-50
-2.968e-46
-1.17873e-43
-1.79187e-42
-4.07131e-42
-4.1583e-42
-2.60832e-42
-8.86709e-43
-1.58757e-42
-4.68559e-42
-7.58254e-42
-7.54027e-42
-3.30126e-42
-2.16978e-43
-5.41649e-46
-2.22733e-50
-2.44768e-55
-6.13054e-61
-7.31787e-62
-3.33257e-56
-3.76848e-51
-1.20362e-46
-5.76537e-44
-9.95287e-43
-2.47463e-42
-2.68839e-42
-1.75158e-42
-6.03393e-43
-1.07944e-42
-3.14384e-42
-4.89783e-42
-4.57881e-42
-1.83196e-42
-1.06027e-43
-2.19404e-46
-7.23455e-51
-6.53942e-56
-1.38112e-61
-1.66616e-62
-9.02267e-57
-1.23026e-51
-4.81364e-47
-2.78027e-44
-5.45009e-43
-1.48297e-42
-1.71396e-42
-1.16001e-42
-4.05003e-43
-7.23947e-43
-2.08029e-42
-3.11985e-42
-2.7414e-42
-1.00224e-42
-5.10821e-44
-8.76479e-47
-2.3293e-51
-1.73276e-56
-3.06382e-62
-3.89512e-63
-2.43597e-57
-3.98741e-52
-1.899e-47
-1.32222e-44
-2.94303e-43
-8.76451e-43
-1.07788e-42
-7.57834e-43
-2.68206e-43
-4.79043e-43
-1.35793e-42
-1.96033e-42
-1.61873e-42
-5.40722e-43
-2.4271e-44
-3.45388e-47
-7.43692e-52
-4.56137e-57
-6.70858e-63
-9.38389e-64
-6.59492e-58
-1.28371e-52
-7.39161e-48
-6.20279e-45
-1.5676e-43
-5.10997e-43
-6.68834e-43
-4.88526e-43
-1.75282e-43
-3.12827e-43
-8.74657e-43
-1.21537e-42
-9.42927e-43
-2.87761e-43
-1.13757e-44
-1.34289e-47
-2.35543e-52
-1.19413e-57
-1.47941e-63
-2.22538e-64
-1.79049e-58
-4.10326e-53
-2.83929e-48
-2.871e-45
-8.2383e-44
-2.93979e-43
-4.09594e-43
-3.10819e-43
-1.13073e-43
-2.01648e-43
-5.56046e-43
-7.43676e-43
-5.41996e-43
-1.51097e-43
-5.26063e-45
-5.15265e-48
-7.39141e-53
-3.1074e-58
-3.32023e-64
-5.17585e-65
-4.8489e-59
-1.30052e-53
-1.07652e-48
-1.31141e-45
-4.2727e-44
-1.66928e-43
-2.47617e-43
-1.95225e-43
-7.20162e-44
-1.28332e-43
-3.48978e-43
-4.49216e-43
-3.07493e-43
-7.8298e-44
-2.40084e-45
-1.95147e-48
-2.29583e-53
-8.01682e-59
-7.47496e-65
-1.21153e-65
-1.29941e-59
-4.08109e-54
-4.02959e-49
-5.91282e-46
-2.1874e-44
-9.35744e-44
-1.47807e-43
-1.21079e-43
-4.52936e-44
-8.06527e-44
-2.16268e-43
-2.6793e-43
-1.72225e-43
-4.00508e-44
-1.08155e-45
-7.29657e-49
-7.06051e-54
-2.05698e-59
-1.68394e-65
-2.7907e-66
-3.43114e-60
-1.26777e-54
-1.48942e-49
-2.63203e-46
-1.10562e-44
-5.17961e-44
-8.71349e-44
-7.41637e-44
-2.8136e-44
-5.0064e-44
-1.32369e-43
-1.57824e-43
-9.52521e-44
-2.0227e-44
-4.81033e-46
-2.69401e-49
-2.15343e-54
-5.25875e-60
-3.77929e-66
-6.50563e-67
-9.00979e-61
-3.91238e-55
-5.4374e-50
-1.15694e-46
-5.51864e-45
-2.83165e-44
-5.07406e-44
-4.48737e-44
-1.72658e-44
-3.06997e-44
-8.00312e-44
-9.18326e-44
-5.20309e-44
-1.00879e-44
-2.11267e-46
-9.82436e-50
-6.52621e-55
-1.34397e-60
-8.53283e-67
-1.63611e-67
-2.42354e-61
-1.2079e-55
-1.96104e-50
-5.02266e-47
-2.72073e-45
-1.52923e-44
-2.91924e-44
-2.68256e-44
-1.04685e-44
-1.86004e-44
-4.78074e-44
-5.2793e-44
-2.80765e-44
-4.96943e-45
-9.1643e-47
-3.53936e-50
-1.97248e-55
-3.46224e-61
-1.93662e-67
-4.43437e-68
-6.76746e-62
-3.75142e-56
-6.9888e-51
-2.15397e-47
-1.3251e-45
-8.15973e-45
-1.65963e-44
-1.58467e-44
-6.27233e-45
-1.11368e-44
-2.82208e-44
-2.99908e-44
-1.49693e-44
-2.4184e-45
-3.92694e-47
-1.25993e-50
-5.96806e-56
-9.04868e-62
-4.47542e-68
-1.19841e-68
-1.90703e-62
-1.16606e-56
-2.46154e-51
-9.12652e-48
-6.37683e-46
-4.3026e-45
-9.32521e-45
-9.25203e-45
-3.71441e-45
-6.5905e-45
-1.64647e-44
-1.68387e-44
-7.88707e-45
-1.1629e-45
-1.66254e-47
-4.43247e-51
-1.80803e-56
-2.38287e-62
-1.05815e-68
-3.17541e-69
-5.35667e-63
-3.60296e-57
-8.56927e-52
-3.8212e-48
-3.03267e-46
-2.2424e-45
-5.1794e-45
-5.33962e-45
-2.17437e-45
-3.85535e-45
-9.49549e-45
-9.34562e-45
-4.10735e-45
-5.52622e-46
-6.95544e-48
-1.5413e-51
-5.47154e-57
-6.36531e-63
-2.6118e-69
-8.38602e-70
-1.49792e-63
-1.10348e-57
-2.94893e-52
-1.58122e-48