/*--------------------------------*- C++ -*----------------------------------*\
| =========                 |                                                 |
| \\      /  F ield         | OpenFOAM: The Open Source CFD Toolbox           |
|  \\    /   O peration     | Version:  5.x                                   |
|   \\  /    A nd           | Web:      www.OpenFOAM.org                      |
|    \\/     M anipulation  |                                                 |
\*---------------------------------------------------------------------------*/
FoamFile
{
    version     2.0;
    format      ascii;
    class       surfaceScalarField;
    location    "0.15";
    object      alphaPhi10;
}
// * * * * * * * * * * * * * * * * * * * * * * * * * * * * * * * * * * * * * //

dimensions      [0 3 -1 0 0 0 0];

internalField   nonuniform List<scalar> 
15580
(
8.06496e-17
-1.58651e-10
1.05552e-16
-4.08352e-10
1.16573e-16
-5.92415e-10
1.18635e-16
-7.22591e-10
1.12816e-16
-8.10094e-10
9.95764e-17
-8.65452e-10
7.99099e-17
-8.98078e-10
5.54069e-17
-9.15741e-10
2.7705e-17
-9.24294e-10
-1.50123e-18
-9.2761e-10
-3.04851e-17
-9.2761e-10
-5.74197e-17
-9.24294e-10
-8.02069e-17
-9.15741e-10
-9.68151e-17
-8.98078e-10
-1.05491e-16
-8.65452e-10
-1.0507e-16
-8.10094e-10
-9.53656e-17
-7.22591e-10
-7.71821e-17
-5.92415e-10
-4.82933e-17
-4.08352e-10
-1.5865e-10
7.05231e-17
-1.58651e-10
9.73383e-17
-4.08352e-10
1.08423e-16
-5.92415e-10
1.11353e-16
-7.22591e-10
1.06213e-16
-8.10094e-10
9.34466e-17
-8.65452e-10
7.43998e-17
-8.98078e-10
5.06015e-17
-9.1574e-10
2.36456e-17
-9.24294e-10
-4.80394e-18
-9.2761e-10
-3.29393e-17
-9.2761e-10
-5.9007e-17
-9.24294e-10
-8.12301e-17
-9.1574e-10
-9.76468e-17
-8.98078e-10
-1.06287e-16
-8.65452e-10
-1.05936e-16
-8.10094e-10
-9.69114e-17
-7.22591e-10
-8.02909e-17
-5.92415e-10
-5.60603e-17
-4.08352e-10
-1.5865e-10
4.36695e-17
-1.58651e-10
6.853e-17
-4.08352e-10
8.34702e-17
-5.92415e-10
9.04811e-17
-7.22591e-10
8.86939e-17
-8.10094e-10
7.89117e-17
-8.65452e-10
6.2684e-17
-8.98078e-10
4.16409e-17
-9.1574e-10
1.73591e-17
-9.24294e-10
-8.53928e-18
-9.2761e-10
-3.43914e-17
-9.2761e-10
-5.86714e-17
-9.24294e-10
-7.9699e-17
-9.1574e-10
-9.54684e-17
-8.98078e-10
-1.0366e-16
-8.65452e-10
-1.02491e-16
-8.10094e-10
-9.09055e-17
-7.22591e-10
-6.94027e-17
-5.92415e-10
-3.83241e-17
-4.08352e-10
-1.58651e-10
1.27166e-17
-1.58651e-10
3.42325e-17
-4.08352e-10
5.19602e-17
-5.92415e-10
6.33366e-17
-7.22591e-10
6.60344e-17
-8.10094e-10
6.04172e-17
-8.65452e-10
4.82137e-17
-8.98078e-10
3.11327e-17
-9.1574e-10
1.06777e-17
-9.24294e-10
-1.1594e-17
-9.2761e-10
-3.44203e-17
-9.2761e-10
-5.64747e-17
-9.24294e-10
-7.61319e-17
-9.1574e-10
-9.1343e-17
-8.98078e-10
-9.97849e-17
-8.65452e-10
-9.88657e-17
-8.10094e-10
-8.58202e-17
-7.22591e-10
-5.92359e-17
-5.92415e-10
-2.3714e-17
-4.08352e-10
-1.58651e-10
-5.20243e-18
-1.58651e-10
6.57242e-18
-4.08352e-10
2.39563e-17
-5.92415e-10
3.83829e-17
-7.22591e-10
4.49328e-17
-8.10094e-10
4.30449e-17
-8.65452e-10
3.45655e-17
-8.98078e-10
2.12068e-17
-9.1574e-10
4.49049e-18
-9.24294e-10
-1.42765e-17
-9.2761e-10
-3.40724e-17
-9.2761e-10
-5.37903e-17
-9.24294e-10
-7.20386e-17
-9.1574e-10
-8.69821e-17
-8.98078e-10
-9.64214e-17
-8.65452e-10
-9.72799e-17
-8.10094e-10
-8.60047e-17
-7.22591e-10
-5.96078e-17
-5.92415e-10
-2.4859e-17
-4.08352e-10
-1.58651e-10
-2.2471e-17
-1.58651e-10
-1.13809e-17
-4.08352e-10
4.6601e-18
-5.92415e-10
2.05387e-17
-7.22591e-10
2.9449e-17
-8.10094e-10
3.00164e-17
-8.65452e-10
2.39234e-17
-8.98078e-10
1.30899e-17
-9.1574e-10
-7.4044e-19
-9.24294e-10
-1.66548e-17
-9.2761e-10
-3.37428e-17
-9.2761e-10
-5.12095e-17
-9.24294e-10
-6.79982e-17
-9.1574e-10
-8.26435e-17
-8.98078e-10
-9.3249e-17
-8.65452e-10
-9.71249e-17
-8.10094e-10
-9.05321e-17
-7.22591e-10
-6.935e-17
-5.92415e-10
-3.47284e-17
-4.08352e-10
-1.58651e-10
-1.90528e-17
-1.58651e-10
-1.27472e-17
-4.08352e-10
-8.51018e-19
-5.92415e-10
1.25653e-17
-7.22591e-10
2.14783e-17
-8.10094e-10
2.29399e-17
-8.65452e-10
1.7671e-17
-8.98078e-10
8.06777e-18
-9.1574e-10
-4.03929e-18
-9.24294e-10
-1.77171e-17
-9.2761e-10
-3.2397e-17
-9.2761e-10
-4.75441e-17
-9.24294e-10
-6.24593e-17
-9.1574e-10
-7.61638e-17
-8.98078e-10
-8.74473e-17
-8.65452e-10
-9.45857e-17
-8.10094e-10
-9.48383e-17
-7.22591e-10
-8.39149e-17
-5.92415e-10
-5.58359e-17
-4.08352e-10
-1.58651e-10
-8.181e-18
-1.58651e-10
-3.8626e-18
-4.08352e-10
5.97476e-18
-5.92415e-10
1.4502e-17
-7.22591e-10
2.02715e-17
-8.10094e-10
2.08032e-17
-8.65452e-10
1.57633e-17
-8.98078e-10
6.85351e-18
-9.1574e-10
-4.19925e-18
-9.24294e-10
-1.62045e-17
-9.2761e-10
-2.86482e-17
-9.2761e-10
-4.11621e-17
-9.24294e-10
-5.34154e-17
-9.1574e-10
-6.49083e-17
-8.98078e-10
-7.50467e-17
-8.65452e-10
-8.33985e-17
-8.10094e-10
-8.9088e-17
-7.22591e-10
-8.82166e-17
-5.92415e-10
-7.24295e-17
-4.08352e-10
-1.58651e-10
-1.88335e-18
-1.58651e-10
5.46764e-18
-4.08352e-10
1.58855e-17
-5.92415e-10
2.14093e-17
-7.22591e-10
2.31375e-17
-8.10094e-10
2.15403e-17
-8.65452e-10
1.6296e-17
-8.98078e-10
8.12844e-18
-9.1574e-10
-1.61419e-18
-9.24294e-10
-1.18442e-17
-9.2761e-10
-2.18988e-17
-9.2761e-10
-3.1386e-17
-9.24294e-10
-4.0111e-17
-9.1574e-10
-4.7791e-17
-8.98078e-10
-5.41068e-17
-8.65452e-10
-5.98321e-17
-8.10094e-10
-6.32278e-17
-7.22591e-10
-6.27149e-17
-5.92415e-10
-5.33117e-17
-4.08352e-10
-1.58651e-10
4.76671e-18
-1.58651e-10
1.46375e-17
-4.08352e-10
2.40994e-17
-5.92415e-10
2.75401e-17
-7.22591e-10
2.62964e-17
-8.10094e-10
2.26221e-17
-8.65452e-10
1.71021e-17
-8.98078e-10
1.00451e-17
-9.1574e-10
2.15858e-18
-9.24294e-10
-5.75065e-18
-9.2761e-10
-1.30187e-17
-9.2761e-10
-1.92597e-17
-9.24294e-10
-2.41924e-17
-9.1574e-10
-2.74948e-17
-8.98078e-10
-2.94321e-17
-8.65452e-10
-3.03562e-17
-8.10094e-10
-2.68168e-17
-7.22591e-10
-1.90759e-17
-5.92415e-10
-1.02742e-17
-4.08352e-10
-1.58651e-10
1.55834e-17
-1.58651e-10
2.24743e-17
-4.08352e-10
2.80952e-17
-5.92415e-10
2.9296e-17
-7.22591e-10
2.65467e-17
-8.10094e-10
2.2057e-17
-8.65452e-10
1.68874e-17
-8.98078e-10
1.12815e-17
-9.1574e-10
5.57899e-18
-9.24294e-10
3.03576e-19
-9.2761e-10
-4.07835e-18
-9.2761e-10
-7.27762e-18
-9.24294e-10
-9.07598e-18
-9.1574e-10
-9.37847e-18
-8.98078e-10
-8.83014e-18
-8.65452e-10
-5.68065e-18
-8.10094e-10
2.26147e-18
-7.22591e-10
1.15857e-17
-5.92415e-10
1.96028e-17
-4.08352e-10
-1.58651e-10
1.17981e-17
-1.58651e-10
2.13166e-17
-4.08352e-10
2.45683e-17
-5.92415e-10
2.46985e-17
-7.22591e-10
2.25968e-17
-8.10094e-10
1.90374e-17
-8.65452e-10
1.5232e-17
-8.98078e-10
1.1454e-17
-9.1574e-10
7.99521e-18
-9.24294e-10
5.23196e-18
-9.2761e-10
3.41221e-18
-9.2761e-10
2.62076e-18
-9.24294e-10
2.81133e-18
-9.1574e-10
3.43719e-18
-8.98078e-10
4.50318e-18
-8.65452e-10
9.49736e-18
-8.10094e-10
1.74347e-17
-7.22591e-10
2.06547e-17
-5.92415e-10
1.66971e-17
-4.08352e-10
-1.58651e-10
9.38924e-18
-1.58651e-10
1.558e-17
-4.08352e-10
1.62474e-17
-5.92415e-10
1.59341e-17
-7.22591e-10
1.57053e-17
-8.10094e-10
1.461e-17
-8.65452e-10
1.27908e-17
-8.98078e-10
1.09752e-17
-9.1574e-10
9.56882e-18
-9.24294e-10
8.90034e-18
-9.2761e-10
9.09269e-18
-9.2761e-10
9.94578e-18
-9.24294e-10
1.10799e-17
-9.1574e-10
1.12603e-17
-8.98078e-10
1.25512e-17
-8.65452e-10
1.81034e-17
-8.10094e-10
2.42384e-17
-7.22591e-10
2.39516e-17
-5.92415e-10
1.692e-17
-4.08352e-10
-1.58651e-10
8.49289e-18
-1.58651e-10
1.19261e-17
-4.08352e-10
1.06148e-17
-5.92415e-10
9.31356e-18
-7.22591e-10
9.71634e-18
-8.10094e-10
1.0489e-17
-8.65452e-10
1.05953e-17
-8.98078e-10
1.0537e-17
-9.1574e-10
1.07948e-17
-9.24294e-10
1.1716e-17
-9.2761e-10
1.32855e-17
-9.2761e-10
1.4957e-17
-9.24294e-10
1.58562e-17
-9.1574e-10
1.60595e-17
-8.98078e-10
1.81933e-17
-8.65452e-10
2.29407e-17
-8.10094e-10
2.62125e-17
-7.22591e-10
2.49959e-17
-5.92415e-10
1.9009e-17
-4.08352e-10
-1.58651e-10
1.1498e-17
-1.58651e-10
1.19035e-17
-4.08352e-10
8.2695e-18
-5.92415e-10
5.62682e-18
-7.22591e-10
5.40915e-18
-8.10094e-10
7.068e-18
-8.65452e-10
8.9964e-18
-8.98078e-10
1.06898e-17
-9.1574e-10
1.22833e-17
-9.24294e-10
1.42992e-17
-9.2761e-10
1.66254e-17
-9.2761e-10
1.83528e-17
-9.24294e-10
1.85923e-17
-9.1574e-10
1.9119e-17
-8.98078e-10
2.1343e-17
-8.65452e-10
2.37051e-17
-8.10094e-10
2.32985e-17
-7.22591e-10
1.88878e-17
-5.92415e-10
1.37472e-17
-4.08352e-10
-1.58651e-10
1.42525e-17
-1.58651e-10
1.0089e-17
-4.08352e-10
4.75462e-18
-5.92415e-10
1.74679e-18
-7.22591e-10
1.43711e-18
-8.10094e-10
3.77694e-18
-8.65452e-10
7.34693e-18
-8.98078e-10
1.10174e-17
-9.1574e-10
1.43581e-17
-9.24294e-10
1.72432e-17
-9.2761e-10
1.943e-17
-9.2761e-10
2.03982e-17
-9.24294e-10
2.06019e-17
-9.1574e-10
2.10942e-17
-8.98078e-10
2.1935e-17
-8.65452e-10
2.12331e-17
-8.10094e-10
1.68463e-17
-7.22591e-10
8.01913e-18
-5.92415e-10
1.454e-18
-4.08352e-10
-1.58651e-10
6.85929e-18
-1.58651e-10
7.17173e-19
-4.08352e-10
-3.17702e-18
-5.92415e-10
-4.06951e-18
-7.22591e-10
-2.7101e-18
-8.10094e-10
7.53688e-19
-8.65452e-10
5.57377e-18
-8.98078e-10
1.07063e-17
-9.1574e-10
1.55143e-17
-9.24294e-10
1.91947e-17
-9.2761e-10
2.13914e-17
-9.2761e-10
2.24281e-17
-9.24294e-10
2.293e-17
-9.1574e-10
2.32423e-17
-8.98078e-10
2.25259e-17
-8.65452e-10
1.90251e-17
-8.10094e-10
1.03996e-17
-7.22591e-10
-3.8378e-18
-5.92415e-10
-1.40377e-17
-4.08352e-10
-1.58651e-10
-1.13622e-17
-1.58651e-10
-1.37813e-17
-4.08352e-10
-1.27007e-17
-5.92415e-10
-9.93388e-18
-7.22591e-10
-6.29663e-18
-8.10094e-10
-1.5613e-18
-8.65452e-10
4.0764e-18
-8.98078e-10
1.00193e-17
-9.1574e-10
1.56008e-17
-9.24294e-10
2.005e-17
-9.2761e-10
2.29995e-17
-9.2761e-10
2.49604e-17
-9.24294e-10
2.62517e-17
-9.1574e-10
2.67744e-17
-8.98078e-10
2.55033e-17
-8.65452e-10
2.08095e-17
-8.10094e-10
1.06843e-17
-7.22591e-10
-4.40131e-18
-5.92415e-10
-1.7825e-17
-4.08352e-10
-1.58651e-10
-2.14507e-17
-1.58651e-10
-2.25016e-17
-4.08352e-10
-1.77864e-17
-5.92415e-10
-1.29443e-17
-7.22591e-10
-8.05232e-18
-8.10094e-10
-2.67779e-18
-8.65452e-10
3.28553e-18
-8.98078e-10
9.48741e-18
-9.1574e-10
1.54536e-17
-9.24294e-10
2.06607e-17
-9.2761e-10
2.48259e-17
-9.2761e-10
2.81152e-17
-9.24294e-10
3.06145e-17
-9.1574e-10
3.19703e-17
-8.98078e-10
3.14429e-17
-8.65452e-10
2.78645e-17
-8.10094e-10
2.02547e-17
-7.22591e-10
1.11867e-17
-5.92415e-10
1.60595e-18
-4.08352e-10
-1.58651e-10
-1.87684e-17
-1.58651e-10
-1.98926e-17
-4.08352e-10
-1.60109e-17
-5.92415e-10
-1.19386e-17
-7.22591e-10
-7.45692e-18
-8.10094e-10
-2.30217e-18
-8.65452e-10
3.50231e-18
-8.98078e-10
9.63844e-18
-9.1574e-10
1.57741e-17
-9.24294e-10
2.16163e-17
-9.2761e-10
2.69231e-17
-9.2761e-10
3.15129e-17
-9.24294e-10
3.53938e-17
-9.1574e-10
3.81422e-17
-8.98078e-10
3.91101e-17
-8.65452e-10
3.77663e-17
-8.10094e-10
3.477e-17
-7.22591e-10
3.34012e-17
-5.92415e-10
2.79585e-17
-4.08352e-10
-1.58651e-10
-3.73925e-18
-1.58651e-10
-8.81702e-18
-4.08352e-10
-9.78571e-18
-5.92415e-10
-8.33768e-18
-7.22591e-10
-5.11583e-18
-8.10094e-10
-6.172e-19
-8.65452e-10
4.76771e-18
-8.98078e-10
1.06264e-17
-9.1574e-10
1.6695e-17
-9.24294e-10
2.28063e-17
-9.2761e-10
2.87914e-17
-9.2761e-10
3.4447e-17
-9.24294e-10
3.959e-17
-9.1574e-10
4.36662e-17
-8.98078e-10
4.59761e-17
-8.65452e-10
4.658e-17
-8.10094e-10
4.78532e-17
-7.22591e-10
5.11469e-17
-5.92415e-10
4.32876e-17
-4.08352e-10
-1.58651e-10
1.03814e-17
-1.58651e-10
-1.33095e-18
-4.08352e-10
-5.56148e-18
-5.92415e-10
-5.05081e-18
-7.22591e-10
-2.19631e-18
-8.10094e-10
1.92565e-18
-8.65452e-10
6.79973e-18
-8.98078e-10
1.21298e-17
-9.1574e-10
1.77729e-17
-9.24294e-10
2.36829e-17
-9.2761e-10
2.98036e-17
-9.2761e-10
3.59924e-17
-9.24294e-10
4.18584e-17
-9.1574e-10
4.66025e-17
-8.98078e-10
4.94513e-17
-8.65452e-10
5.12649e-17
-8.10094e-10
5.5734e-17
-7.22591e-10
6.14671e-17
-5.92415e-10
5.27751e-17
-4.08352e-10
-1.58651e-10
-6.28993e-18
-1.58651e-10
-7.86599e-18
-4.08352e-10
-6.4216e-18
-5.92415e-10
-2.75754e-18
-7.22591e-10
1.29551e-18
-8.10094e-10
5.29675e-18
-8.65452e-10
9.39821e-18
-8.98078e-10
1.37838e-17
-9.1574e-10
1.85316e-17
-9.24294e-10
2.37071e-17
-9.2761e-10
2.93411e-17
-9.2761e-10
3.53026e-17
-9.24294e-10
4.1014e-17
-9.1574e-10
4.53773e-17
-8.98078e-10
4.77124e-17
-8.65452e-10
4.99799e-17
-8.10094e-10
5.63266e-17
-7.22591e-10
6.23656e-17
-5.92415e-10
5.18924e-17
-4.08352e-10
-1.58651e-10
-2.45641e-17
-1.58651e-10
-1.31373e-17
-4.08352e-10
-3.8101e-18
-5.92415e-10
2.88663e-18
-7.22591e-10
7.30315e-18
-8.10094e-10
1.021e-17
-8.65452e-10
1.26458e-17
-8.98078e-10
1.53303e-17
-9.1574e-10
1.85511e-17
-9.24294e-10
2.24056e-17
-9.2761e-10
2.69083e-17
-9.2761e-10
3.18314e-17
-9.24294e-10
3.63812e-17
-9.1574e-10
3.93442e-17
-8.98078e-10
4.04949e-17
-8.65452e-10
4.30559e-17
-8.10094e-10
5.02817e-17
-7.22591e-10
5.53581e-17
-5.92415e-10
4.37193e-17
-4.08352e-10
-1.58651e-10
-1.14932e-17
-1.58651e-10
2.07927e-18
-4.08352e-10
1.12948e-17
-5.92415e-10
1.571e-17
-7.22591e-10
1.71407e-17
-8.10094e-10
1.6867e-17
-8.65452e-10
1.63118e-17
-8.98078e-10
1.64118e-17
-9.1574e-10
1.74723e-17
-9.24294e-10
1.947e-17
-9.2761e-10
2.22506e-17
-9.2761e-10
2.54028e-17
-9.24294e-10
2.80113e-17
-9.1574e-10
2.904e-17
-8.98078e-10
2.91673e-17
-8.65452e-10
3.26159e-17
-8.10094e-10
4.03915e-17
-7.22591e-10
4.41328e-17
-5.92415e-10
3.27502e-17
-4.08352e-10
-1.58651e-10
2.5621e-17
-1.58651e-10
3.21369e-17
-4.08352e-10
3.55839e-17
-5.92415e-10
3.34071e-17
-7.22591e-10
2.89796e-17
-8.10094e-10
2.38534e-17
-8.65452e-10
1.93701e-17
-8.98078e-10
1.63443e-17
-9.1574e-10
1.48821e-17
-9.24294e-10
1.46887e-17
-9.2761e-10
1.53551e-17
-9.2761e-10
1.63275e-17
-9.24294e-10
1.66995e-17
-9.1574e-10
1.58971e-17
-8.98078e-10
1.58846e-17
-8.65452e-10
2.10753e-17
-8.10094e-10
2.95215e-17
-7.22591e-10
3.24562e-17
-5.92415e-10
2.31492e-17
-4.08352e-10
-1.5865e-10
4.47317e-17
-1.58651e-10
5.80751e-17
-4.08352e-10
5.74196e-17
-5.92415e-10
4.89611e-17
-7.22591e-10
3.85076e-17
-8.10094e-10
2.8481e-17
-8.65452e-10
2.01869e-17
-8.98078e-10
1.42084e-17
-9.1574e-10
1.03484e-17
-9.24294e-10
8.00462e-18
-9.2761e-10
6.55215e-18
-9.2761e-10
5.37124e-18
-9.24294e-10
3.72815e-18
-9.1574e-10
1.57508e-18
-8.98078e-10
2.34873e-18
-8.65452e-10
9.61017e-18
-8.10094e-10
1.86967e-17
-7.22591e-10
2.19983e-17
-5.92415e-10
1.64409e-17
-4.08352e-10
-1.5865e-10
5.58714e-17
-1.58651e-10
7.39408e-17
-4.08352e-10
6.94835e-17
-5.92415e-10
5.6447e-17
-7.22591e-10
4.15731e-17
-8.10094e-10
2.81162e-17
-8.65452e-10
1.72345e-17
-8.98078e-10
9.24334e-18
-9.1574e-10
3.6582e-18
-9.24294e-10
-3.40711e-19
-9.2761e-10
-3.51962e-18
-9.2761e-10
-6.44736e-18
-9.24294e-10
-9.89661e-18
-9.1574e-10
-1.29534e-17
-8.98078e-10
-1.10305e-17
-8.65452e-10
-2.45061e-18
-8.10094e-10
6.58287e-18
-7.22591e-10
1.1192e-17
-5.92415e-10
1.04447e-17
-4.08352e-10
-1.5865e-10
6.90368e-17
-1.58651e-10
7.43645e-17
-4.08352e-10
6.65188e-17
-5.92415e-10
5.14485e-17
-7.22591e-10
3.52246e-17
-8.10094e-10
2.10715e-17
-8.65452e-10
9.69986e-18
-8.98078e-10
1.22647e-18
-9.1574e-10
-4.96982e-18
-9.24294e-10
-9.81534e-18
-9.2761e-10
-1.3998e-17
-9.2761e-10
-1.82512e-17
-9.24294e-10
-2.33006e-17
-9.1574e-10
-2.68046e-17
-8.98078e-10
-2.42076e-17
-8.65452e-10
-1.5743e-17
-8.10094e-10
-8.88609e-18
-7.22591e-10
-3.48547e-18
-5.92415e-10
1.11912e-18
-4.08352e-10
-1.5865e-10
4.33017e-17
-1.58651e-10
4.65281e-17
-4.08352e-10
4.18673e-17
-5.92415e-10
3.11643e-17
-7.22591e-10
1.86351e-17
-8.10094e-10
7.40238e-18
-8.65452e-10
-1.95583e-18
-8.98078e-10
-9.16007e-18
-9.1574e-10
-1.47026e-17
-9.24294e-10
-1.94453e-17
-9.2761e-10
-2.4209e-17
-9.2761e-10
-2.97458e-17
-9.24294e-10
-3.57315e-17
-9.1574e-10
-3.83385e-17
-8.98078e-10
-3.43652e-17
-8.65452e-10
-2.97455e-17
-8.10094e-10
-2.85359e-17
-7.22591e-10
-2.38089e-17
-5.92415e-10
-1.30967e-17
-4.08352e-10
-1.5865e-10
-6.04416e-18
-1.58651e-10
3.5312e-18
-4.08352e-10
3.51852e-18
-5.92415e-10
5.8787e-19
-7.22591e-10
-4.60994e-18
-8.10094e-10
-1.01365e-17
-8.65452e-10
-1.55119e-17
-8.98078e-10
-2.00524e-17
-9.1574e-10
-2.38195e-17
-9.24294e-10
-2.77282e-17
-9.2761e-10
-3.2225e-17
-9.2761e-10
-3.78773e-17
-9.24294e-10
-4.31709e-17
-9.1574e-10
-4.39072e-17
-8.98078e-10
-4.27779e-17
-8.65452e-10
-4.60199e-17
-8.10094e-10
-5.01744e-17
-7.22591e-10
-4.64818e-17
-5.92415e-10
-2.9379e-17
-4.08352e-10
-1.5865e-10
-1.83019e-17
-1.58651e-10
-2.60775e-17
-4.08352e-10
-2.98999e-17
-5.92415e-10
-2.95626e-17
-7.22591e-10
-2.78026e-17
-8.10094e-10
-2.67932e-17
-8.65452e-10
-2.73564e-17
-8.98078e-10
-2.86751e-17
-9.1574e-10
-3.01869e-17
-9.24294e-10
-3.24094e-17
-9.2761e-10
-3.60716e-17
-9.2761e-10
-4.13131e-17
-9.24294e-10
-4.49979e-17
-9.1574e-10
-4.67576e-17
-8.98078e-10
-5.14743e-17
-8.65452e-10
-6.1325e-17
-8.10094e-10
-7.0213e-17
-7.22591e-10
-6.85484e-17
-5.92415e-10
-4.66721e-17
-4.08352e-10
-1.58651e-10
-3.62537e-17
-1.58651e-10
-5.23257e-17
-4.08352e-10
-5.86614e-17
-5.92415e-10
-5.50259e-17
-7.22591e-10
-4.64512e-17
-8.10094e-10
-3.85083e-17
-8.65452e-10
-3.38836e-17
-8.98078e-10
-3.20102e-17
-9.1574e-10
-3.14784e-17
-9.24294e-10
-3.24595e-17
-9.2761e-10
-3.59147e-17
-9.2761e-10
-4.03182e-17
-9.24294e-10
-4.37229e-17
-9.1574e-10
-4.86158e-17
-8.98078e-10
-5.73391e-17
-8.65452e-10
-7.14695e-17
-8.10094e-10
-8.43071e-17
-7.22591e-10
-8.62269e-17
-5.92415e-10
-6.78339e-17
-4.08352e-10
-1.58651e-10
-6.27361e-17
-1.58651e-10
-8.2751e-17
-4.08352e-10
-8.26357e-17
-5.92415e-10
-7.28867e-17
-7.22591e-10
-5.74583e-17
-8.10094e-10
-4.31202e-17
-8.65452e-10
-3.30758e-17
-8.98078e-10
-2.78621e-17
-9.1574e-10
-2.65113e-17
-9.24294e-10
-2.77651e-17
-9.2761e-10
-3.08229e-17
-9.2761e-10
-3.41315e-17
-9.24294e-10
-3.8342e-17
-9.1574e-10
-4.53802e-17
-8.98078e-10
-5.63134e-17
-8.65452e-10
-7.18643e-17
-8.10094e-10
-8.5394e-17
-7.22591e-10
-8.89176e-17
-5.92415e-10
-6.98376e-17
-4.08352e-10
-1.58651e-10
-8.52958e-17
-1.58651e-10
-1.04118e-16
-4.08352e-10
-9.55558e-17
-5.92415e-10
-7.84561e-17
-7.22591e-10
-5.79719e-17
-8.10094e-10
-3.93517e-17
-8.65452e-10
-2.55892e-17
-8.98078e-10
-1.83506e-17
-9.1574e-10
-1.64702e-17
-9.24294e-10
-1.7685e-17
-9.2761e-10
-2.01385e-17
-9.2761e-10
-2.39312e-17
-9.24294e-10
-2.9828e-17
-9.1574e-10
-3.71881e-17
-8.98078e-10
-4.82376e-17
-8.65452e-10
-6.24473e-17
-8.10094e-10
-7.48207e-17
-7.22591e-10
-7.88234e-17
-5.92415e-10
-6.29878e-17
-4.08352e-10
-1.58651e-10
-9.16085e-17
-1.58651e-10
-1.04945e-16
-4.08352e-10
-8.95573e-17
-5.92415e-10
-6.74834e-17
-7.22591e-10
-4.55083e-17
-8.10094e-10
-2.70448e-17
-8.65452e-10
-1.33384e-17
-8.98078e-10
-5.78857e-18
-9.1574e-10
-3.39908e-18
-9.24294e-10
-4.14409e-18
-9.2761e-10
-7.1532e-18
-9.2761e-10
-1.27746e-17
-9.24294e-10
-1.96978e-17
-9.1574e-10
-2.63256e-17
-8.98078e-10
-3.57926e-17
-8.65452e-10
-4.70804e-17
-8.10094e-10
-5.65185e-17
-7.22591e-10
-5.76249e-17
-5.92415e-10
-4.05833e-17
-4.08352e-10
-1.58651e-10
-7.55417e-17
-1.5865e-10
-8.12331e-17
-4.08352e-10
-6.23235e-17
-5.92415e-10
-3.96923e-17
-7.22591e-10
-2.03145e-17
-8.10094e-10
-6.41667e-18
-8.65452e-10
2.99684e-18
-8.98078e-10
8.33915e-18
-9.1574e-10
9.68652e-18
-9.24294e-10
7.88929e-18
-9.2761e-10
3.19954e-18
-9.2761e-10
-3.30304e-18
-9.24294e-10
-8.85051e-18
-9.1574e-10
-1.40286e-17
-8.98078e-10
-2.11862e-17
-8.65452e-10
-2.96819e-17
-8.10094e-10
-3.66909e-17
-7.22591e-10
-3.86059e-17
-5.92415e-10
-2.84591e-17
-4.08352e-10
-1.58651e-10
-3.862e-17
-1.5865e-10
-3.47131e-17
-4.08352e-10
-1.63765e-17
-5.92415e-10
1.95379e-18
-7.22591e-10
1.47543e-17
-8.10094e-10
2.14343e-17
-8.65452e-10
2.38797e-17
-8.98078e-10
2.36247e-17
-9.1574e-10
2.08589e-17
-9.24294e-10
1.5819e-17
-9.2761e-10
9.54741e-18
-9.2761e-10
4.30651e-18
-9.24294e-10
1.07842e-18
-9.1574e-10
-2.3965e-18
-8.98078e-10
-7.19897e-18
-8.65452e-10
-1.22029e-17
-8.10094e-10
-1.65981e-17
-7.22591e-10
-2.06076e-17
-5.92415e-10
-2.15246e-17
-4.08352e-10
-1.58651e-10
1.18054e-17
-1.5865e-10
2.77108e-17
-4.08352e-10
4.16581e-17
-5.92415e-10
5.12255e-17
-7.22591e-10
5.37239e-17
-8.10094e-10
5.10961e-17
-8.65452e-10
4.57234e-17
-8.98078e-10
3.89827e-17
-9.1574e-10
3.11571e-17
-9.24294e-10
2.28667e-17
-9.2761e-10
1.59009e-17
-9.2761e-10
1.15701e-17
-9.24294e-10
9.29048e-18
-9.1574e-10
7.36945e-18
-8.98078e-10
5.06831e-18
-8.65452e-10
4.35202e-18
-8.10094e-10
3.80406e-18
-7.22591e-10
3.50735e-19
-5.92415e-10
-5.33847e-18
-4.08352e-10
-1.58651e-10
6.8648e-17
-1.5865e-10
9.62553e-17
-4.08352e-10
1.01233e-16
-5.92415e-10
9.77273e-17
-7.22591e-10
8.81801e-17
-8.10094e-10
7.61444e-17
-8.65452e-10
6.3671e-17
-8.98078e-10
5.16601e-17
-9.1574e-10
4.03171e-17
-9.24294e-10
3.02828e-17
-9.2761e-10
2.26365e-17
-9.2761e-10
1.79922e-17
-9.24294e-10
1.55625e-17
-9.1574e-10
1.4368e-17
-8.98078e-10
1.44965e-17
-8.65452e-10
1.7694e-17
-8.10094e-10
2.1264e-17
-7.22591e-10
2.07046e-17
-5.92415e-10
1.37292e-17
-4.08352e-10
-1.58651e-10
1.3239e-16
-1.58651e-10
1.53763e-16
-4.08352e-10
1.44364e-16
-5.92415e-10
1.27478e-16
-7.22591e-10
1.08647e-16
-8.10094e-10
9.03756e-17
-8.65452e-10
7.37556e-17
-8.98078e-10
5.89777e-17
-9.1574e-10
4.60917e-17
-9.24294e-10
3.53747e-17
-9.2761e-10
2.73789e-17
-9.2761e-10
2.2223e-17
-9.24294e-10
1.92348e-17
-9.1574e-10
1.81039e-17
-8.98078e-10
1.98856e-17
-8.65452e-10
2.56396e-17
-8.10094e-10
3.25616e-17
-7.22591e-10
3.62063e-17
-5.92415e-10
3.11731e-17
-4.08352e-10
-1.58651e-10
1.35269e-16
-1.58651e-10
1.61412e-16
-4.08352e-10
1.49274e-16
-5.92415e-10
1.29522e-16
-7.22591e-10
1.08971e-16
-8.10094e-10
9.01913e-17
-8.65452e-10
7.36819e-17
-8.98078e-10
5.92244e-17
-9.1574e-10
4.68274e-17
-9.24294e-10
3.66595e-17
-9.2761e-10
2.89319e-17
-9.2761e-10
2.3544e-17
-9.24294e-10
2.00335e-17
-9.1574e-10
1.86157e-17
-8.98078e-10
2.08433e-17
-8.65452e-10
2.70379e-17
-8.10094e-10
3.52047e-17
-7.22591e-10
4.22214e-17
-5.92415e-10
4.02603e-17
-4.08352e-10
-1.58651e-10
1.05896e-16
-1.58651e-10
1.22941e-16
-4.08352e-10
1.18819e-16
-5.92415e-10
1.06433e-16
-7.22591e-10
9.13165e-17
-8.10094e-10
7.69964e-17
-8.65452e-10
6.40118e-17
-8.98078e-10
5.23793e-17
-9.1574e-10
4.22678e-17
-9.24294e-10
3.38544e-17
-9.2761e-10
2.72005e-17
-9.2761e-10
2.21473e-17
-9.24294e-10
1.84646e-17
-9.1574e-10
1.65906e-17
-8.98078e-10
1.80405e-17
-8.65452e-10
2.23931e-17
-8.10094e-10
2.87097e-17
-7.22591e-10
3.60574e-17
-5.92415e-10
3.62061e-17
-4.08352e-10
-1.58651e-10
1.52905e-17
-1.58651e-10
5.60181e-17
-4.08352e-10
6.92339e-17
-5.92415e-10
6.92512e-17
-7.22591e-10
6.33115e-17
-8.10094e-10
5.5514e-17
-8.65452e-10
4.75821e-17
-8.98078e-10
4.00604e-17
-9.1574e-10
3.33145e-17
-9.24293e-10
2.75579e-17
-9.2761e-10
2.28058e-17
-9.2761e-10
1.88866e-17
-9.24294e-10
1.56322e-17
-9.1574e-10
1.34572e-17
-8.98078e-10
1.33983e-17
-8.65452e-10
1.44133e-17
-8.10094e-10
1.62262e-17
-7.22591e-10
2.01211e-17
-5.92415e-10
2.0311e-17
-4.08352e-10
-1.58651e-10
9.20157e-18
-1.58651e-10
2.16458e-17
-4.08352e-10
3.13755e-17
-5.92415e-10
3.45184e-17
-7.22591e-10
3.37253e-17
-8.10094e-10
3.11642e-17
-8.65452e-10
2.7997e-17
-8.98078e-10
2.47597e-17
-9.1574e-10
2.1793e-17
-9.24293e-10
1.92491e-17
-9.2761e-10
1.70766e-17
-9.2761e-10
1.50654e-17
-9.24293e-10
1.29951e-17
-9.1574e-10
1.11191e-17
-8.98078e-10
9.79889e-18
-8.65452e-10
7.5789e-18
-8.10094e-10
4.26883e-18
-7.22591e-10
2.49751e-18
-5.92415e-10
3.20294e-19
-4.08352e-10
-1.58651e-10
4.94064e-18
-1.58651e-10
9.94337e-19
-4.08352e-10
2.35728e-18
-5.92415e-10
4.47998e-18
-7.22591e-10
6.11641e-18
-8.10094e-10
7.33033e-18
-8.65452e-10
8.23086e-18
-8.98078e-10
9.02063e-18
-9.1574e-10
9.8714e-18
-9.24293e-10
1.07861e-17
-9.2761e-10
1.16152e-17
-9.2761e-10
1.21015e-17
-9.24293e-10
1.19863e-17
-9.1574e-10
1.13756e-17
-8.98078e-10
1.00514e-17
-8.65452e-10
6.32607e-18
-8.10094e-10
-2.98608e-19
-7.22591e-10
-6.87428e-18
-5.92415e-10
-1.1845e-17
-4.08352e-10
-1.58651e-10
-1.33593e-17
-1.58651e-10
-2.20889e-17
-4.08352e-10
-2.40333e-17
-5.92415e-10
-2.19828e-17
-7.22591e-10
-1.82806e-17
-8.10094e-10
-1.39211e-17
-8.65452e-10
-9.43078e-18
-8.98078e-10
-4.93084e-18
-9.1574e-10
-4.56143e-19
-9.24293e-10
3.84557e-18
-9.2761e-10
7.75496e-18
-9.2761e-10
1.10234e-17
-9.24294e-10
1.3462e-17
-9.1574e-10
1.515e-17
-8.98078e-10
1.55266e-17
-8.65452e-10
1.28207e-17
-8.10094e-10
6.05672e-18
-7.22591e-10
-2.34556e-18
-5.92415e-10
-9.37537e-18
-4.08352e-10
-1.58651e-10
-3.18912e-17
-1.58651e-10
-4.50971e-17
-4.08352e-10
-4.75378e-17
-5.92415e-10
-4.42618e-17
-7.22591e-10
-3.82785e-17
-8.10094e-10
-3.10133e-17
-8.65452e-10
-2.32762e-17
-8.98078e-10
-1.54737e-17
-9.1574e-10
-7.83725e-18
-9.24294e-10
-5.93862e-19
-9.2761e-10
6.06624e-18
-9.2761e-10
1.20075e-17
-9.24294e-10
1.72341e-17
-9.1574e-10
2.19144e-17
-8.98078e-10
2.53402e-17
-8.65452e-10
2.57941e-17
-8.10094e-10
2.17818e-17
-7.22591e-10
1.44969e-17
-5.92415e-10
6.1001e-18
-4.08352e-10
-1.58651e-10
-4.7033e-17
-1.58651e-10
-6.34004e-17
-4.08352e-10
-6.5728e-17
-5.92415e-10
-6.08223e-17
-7.22591e-10
-5.25962e-17
-8.10094e-10
-4.27578e-17
-8.65452e-10
-3.22888e-17
-8.98078e-10
-2.18757e-17
-9.1574e-10
-1.1902e-17
-9.24294e-10
-2.55018e-18
-9.2761e-10
6.14822e-18
-9.2761e-10
1.4267e-17
-9.24294e-10
2.20633e-17
-9.1574e-10
2.98083e-17
-8.98078e-10
3.67273e-17
-8.65452e-10
4.12006e-17
-8.10094e-10
4.12813e-17
-7.22591e-10
3.65301e-17
-5.92415e-10
2.65611e-17
-4.08352e-10
-1.58651e-10
-5.61915e-17
-1.58651e-10
-7.46842e-17
-4.08352e-10
-7.64206e-17
-5.92415e-10
-7.01191e-17
-7.22591e-10
-6.0145e-17
-8.10094e-10
-4.8485e-17
-8.65452e-10
-3.62682e-17
-8.98078e-10
-2.43869e-17
-9.1574e-10
-1.32605e-17
-9.24294e-10
-2.90109e-18
-9.2761e-10
6.8983e-18
-9.2761e-10
1.64442e-17
-9.24294e-10
2.62056e-17
-9.1574e-10
3.64668e-17
-8.98078e-10
4.6415e-17
-8.65452e-10
5.44784e-17
-8.10094e-10
5.84331e-17
-7.22591e-10
5.61428e-17
-5.92415e-10
4.35268e-17
-4.08352e-10
-1.58651e-10
-5.69064e-17
-1.58651e-10
-7.6123e-17
-4.08352e-10
-7.77088e-17
-5.92415e-10
-7.09494e-17
-7.22591e-10
-6.03618e-17
-8.10094e-10
-4.82618e-17
-8.65452e-10
-3.58703e-17
-8.98078e-10
-2.40617e-17
-9.1574e-10
-1.31296e-17
-9.24294e-10
-2.87744e-18
-9.2761e-10
7.09174e-18
-9.2761e-10
1.7236e-17
-9.24294e-10
2.81132e-17
-9.1574e-10
3.99161e-17
-8.98078e-10
5.18641e-17
-8.65452e-10
6.2414e-17
-8.10094e-10
6.92495e-17
-7.22591e-10
6.87703e-17
-5.92415e-10
5.33944e-17
-4.08352e-10
-1.58651e-10
-4.85596e-17
-1.58651e-10
-6.6817e-17
-4.08352e-10
-6.89945e-17
-5.92415e-10
-6.3269e-17
-7.22591e-10
-5.38117e-17
-8.10094e-10
-4.31834e-17
-8.65452e-10
-3.24919e-17
-8.98078e-10
-2.23222e-17
-9.1574e-10
-1.27495e-17
-9.24294e-10
-3.47912e-18
-9.2761e-10
5.89501e-18
-9.2761e-10
1.58313e-17
-9.24294e-10
2.68368e-17
-9.1574e-10
3.89855e-17
-8.98078e-10
5.16634e-17
-8.65452e-10
6.34678e-17
-8.10094e-10
7.21069e-17
-7.22591e-10
7.28547e-17
-5.92415e-10
5.56898e-17
-4.08352e-10
-1.58651e-10
-3.34913e-17
-1.58651e-10
-4.88424e-17
-4.08352e-10
-5.20638e-17
-5.92415e-10
-4.88938e-17
-7.22591e-10
-4.25458e-17
-8.10094e-10
-3.52714e-17
-8.65452e-10
-2.78227e-17
-8.98078e-10
-2.03778e-17
-9.1574e-10
-1.28708e-17
-9.24294e-10
-5.13534e-18
-9.2761e-10
3.04086e-18
-9.2761e-10
1.19823e-17
-9.24294e-10
2.20515e-17
-9.1574e-10
3.32499e-17
-8.98078e-10
4.52556e-17
-8.65452e-10
5.70062e-17
-8.10094e-10
6.63556e-17
-7.22591e-10
6.77812e-17
-5.92415e-10
5.07306e-17
-4.08352e-10
-1.5865e-10
-1.58412e-17
-1.58651e-10
-2.64627e-17
-4.08352e-10
-3.12357e-17
-5.92415e-10
-3.14475e-17
-7.22591e-10
-2.96266e-17
-8.10094e-10
-2.67979e-17
-8.65452e-10
-2.32373e-17
-8.98078e-10
-1.88359e-17
-9.1574e-10
-1.36246e-17
-9.24294e-10
-7.75424e-18
-9.2761e-10
-1.29291e-18
-9.2761e-10
5.89162e-18
-9.24294e-10
1.39718e-17
-9.1574e-10
2.29044e-17
-8.98078e-10
3.2683e-17
-8.65452e-10
4.27385e-17
-8.10094e-10
5.13214e-17
-7.22591e-10
5.2636e-17
-5.92415e-10
3.81529e-17
-4.08352e-10
-1.5865e-10
7.83902e-19
-1.58651e-10
-5.24871e-18
-4.08352e-10
-1.17536e-17
-5.92415e-10
-1.53416e-17
-7.22591e-10
-1.81053e-17
-8.10094e-10
-1.95763e-17
-8.65452e-10
-1.95119e-17
-8.98078e-10
-1.78211e-17
-9.1574e-10
-1.48254e-17
-9.24294e-10
-1.10072e-17
-9.2761e-10
-6.66013e-18
-9.2761e-10
-1.84632e-18
-9.24294e-10
3.38063e-18
-9.1574e-10
8.8811e-18
-8.98078e-10
1.48441e-17
-8.65452e-10
2.12108e-17
-8.10094e-10
2.69513e-17
-7.22591e-10
2.73125e-17
-5.92415e-10
1.76879e-17
-4.08352e-10
-1.5865e-10
1.50342e-17
-1.58651e-10
1.25179e-17
-4.08352e-10
3.33136e-18
-5.92415e-10
-3.54164e-18
-7.22591e-10
-9.93998e-18
-8.10094e-10
-1.4615e-17
-8.65452e-10
-1.70744e-17
-8.98078e-10
-1.7451e-17
-9.1574e-10
-1.6379e-17
-9.24294e-10
-1.45702e-17
-9.2761e-10
-1.24487e-17
-9.2761e-10
-1.02549e-17
-9.24294e-10
-8.30203e-18
-9.1574e-10
-6.93139e-18
-8.98078e-10
-5.97508e-18
-8.65452e-10
-5.11443e-18
-8.10094e-10
-4.50817e-18
-7.22591e-10
-6.03219e-18
-5.92415e-10
-9.15327e-18
-4.08352e-10
-1.5865e-10
2.68484e-17
-1.58651e-10
2.64142e-17
-4.08352e-10
1.27051e-17
-5.92415e-10
2.17978e-18
-7.22591e-10
-6.31517e-18
-8.10094e-10
-1.27789e-17
-8.65452e-10
-1.65515e-17
-8.98078e-10
-1.81219e-17
-9.1574e-10
-1.84073e-17
-9.24294e-10
-1.81832e-17
-9.2761e-10
-1.79415e-17
-9.2761e-10
-1.80762e-17
-9.24294e-10
-1.91571e-17
-9.1574e-10
-2.17939e-17
-8.98078e-10
-2.60299e-17
-8.65452e-10
-3.13938e-17
-8.10094e-10
-3.72604e-17
-7.22591e-10
-4.15905e-17
-5.92415e-10
-3.69138e-17
-4.08352e-10
-1.5865e-10
3.42773e-17
-1.58651e-10
3.22893e-17
-4.08352e-10
1.50159e-17
-5.92415e-10
1.55017e-18
-7.22591e-10
-7.90617e-18
-8.10094e-10
-1.45116e-17
-8.65452e-10
-1.83631e-17
-8.98078e-10
-2.02049e-17
-9.1574e-10
-2.10156e-17
-9.24294e-10
-2.15717e-17
-9.2761e-10
-2.23991e-17
-9.2761e-10
-2.40043e-17
-9.24294e-10
-2.71457e-17
-9.1574e-10
-3.26501e-17
-8.98078e-10
-4.08278e-17
-8.65452e-10
-5.13009e-17
-8.10094e-10
-6.28504e-17
-7.22591e-10
-7.05068e-17
-5.92415e-10
-5.98971e-17
-4.08352e-10
-1.58651e-10
3.32346e-17
-1.58651e-10
2.82609e-17
-4.08352e-10
9.86327e-18
-5.92415e-10
-5.07693e-18
-7.22591e-10
-1.43796e-17
-8.10094e-10
-1.97676e-17
-8.65452e-10
-2.25002e-17
-8.98078e-10
-2.36056e-17
-9.1574e-10
-2.39951e-17
-9.24294e-10
-2.43458e-17
-9.2761e-10
-2.5165e-17
-9.2761e-10
-2.69981e-17
-9.24294e-10
-3.06534e-17
-9.1574e-10
-3.69954e-17
-8.98078e-10
-4.64899e-17
-8.65452e-10
-5.90246e-17
-8.10094e-10
-7.31466e-17
-7.22591e-10
-8.3021e-17
-5.92415e-10
-7.09765e-17
-4.08352e-10
-1.58651e-10
1.97904e-17
-1.58651e-10
1.16468e-17
-4.08352e-10
-3.26666e-18
-5.92415e-10
-1.61453e-17
-7.22591e-10
-2.3638e-17
-8.10094e-10
-2.6823e-17
-8.65452e-10
-2.77005e-17
-8.98078e-10
-2.74038e-17
-9.1574e-10
-2.66517e-17
-9.24294e-10
-2.59683e-17
-9.2761e-10