/*--------------------------------*- C++ -*----------------------------------*\
| =========                 |                                                 |
| \\      /  F ield         | OpenFOAM: The Open Source CFD Toolbox           |
|  \\    /   O peration     | Version:  5.x                                   |
|   \\  /    A nd           | Web:      www.OpenFOAM.org                      |
|    \\/     M anipulation  |                                                 |
\*---------------------------------------------------------------------------*/
FoamFile
{
    version     2.0;
    format      ascii;
    class       volScalarField;
    location    "0.15";
    object      p;
}
// * * * * * * * * * * * * * * * * * * * * * * * * * * * * * * * * * * * * * //

dimensions      [1 -1 -2 0 0 0 0];

internalField   nonuniform List<scalar> 
8000
(
-0.243131
-0.24313
-0.24313
-0.243131
-0.243131
-0.243131
-0.243131
-0.243131
-0.243131
-0.243131
-0.243131
-0.243131
-0.243131
-0.243131
-0.243131
-0.243131
-0.243131
-0.243131
-0.243131
-0.243131
-0.729392
-0.729392
-0.729392
-0.729392
-0.729392
-0.729392
-0.729392
-0.729392
-0.729392
-0.729392
-0.729392
-0.729392
-0.729392
-0.729392
-0.729392
-0.729392
-0.729392
-0.729392
-0.729392
-0.729393
-1.21565
-1.21565
-1.21565
-1.21565
-1.21565
-1.21565
-1.21565
-1.21565
-1.21565
-1.21565
-1.21565
-1.21565
-1.21565
-1.21565
-1.21565
-1.21565
-1.21565
-1.21565
-1.21565
-1.21565
-1.70191
-1.70191
-1.70191
-1.70191
-1.70191
-1.70191
-1.70192
-1.70192
-1.70192
-1.70192
-1.70192
-1.70192
-1.70192
-1.70192
-1.70192
-1.70192
-1.70192
-1.70192
-1.70192
-1.70192
-2.18818
-2.18818
-2.18818
-2.18818
-2.18818
-2.18818
-2.18818
-2.18818
-2.18818
-2.18818
-2.18818
-2.18818
-2.18818
-2.18818
-2.18818
-2.18818
-2.18818
-2.18818
-2.18818
-2.18818
-2.67444
-2.67444
-2.67444
-2.67444
-2.67444
-2.67444
-2.67444
-2.67444
-2.67444
-2.67444
-2.67444
-2.67444
-2.67444
-2.67444
-2.67444
-2.67444
-2.67444
-2.67444
-2.67444
-2.67444
-3.1607
-3.1607
-3.1607
-3.1607
-3.1607
-3.1607
-3.1607
-3.1607
-3.1607
-3.1607
-3.1607
-3.1607
-3.1607
-3.1607
-3.1607
-3.1607
-3.1607
-3.1607
-3.1607
-3.1607
-3.64696
-3.64696
-3.64696
-3.64696
-3.64696
-3.64696
-3.64696
-3.64696
-3.64696
-3.64696
-3.64696
-3.64696
-3.64696
-3.64696
-3.64696
-3.64696
-3.64696
-3.64696
-3.64696
-3.64696
-4.13322
-4.13322
-4.13322
-4.13322
-4.13322
-4.13322
-4.13322
-4.13322
-4.13322
-4.13322
-4.13322
-4.13322
-4.13322
-4.13322
-4.13322
-4.13322
-4.13323
-4.13323
-4.13323
-4.13323
-4.61948
-4.61948
-4.61948
-4.61948
-4.61948
-4.61948
-4.61948
-4.61948
-4.61948
-4.61949
-4.61949
-4.61949
-4.61949
-4.61949
-4.61949
-4.61949
-4.61949
-4.61949
-4.61949
-4.61949
-5.10575
-5.10575
-5.10575
-5.10575
-5.10575
-5.10575
-5.10575
-5.10575
-5.10575
-5.10575
-5.10575
-5.10575
-5.10575
-5.10575
-5.10575
-5.10575
-5.10575
-5.10575
-5.10575
-5.10575
-5.59201
-5.59201
-5.59201
-5.59201
-5.59201
-5.59201
-5.59201
-5.59201
-5.59201
-5.59201
-5.59201
-5.59201
-5.59201
-5.59201
-5.59201
-5.59201
-5.59201
-5.59201
-5.59201
-5.59201
-6.07827
-6.07827
-6.07827
-6.07827
-6.07827
-6.07827
-6.07827
-6.07827
-6.07827
-6.07827
-6.07827
-6.07827
-6.07827
-6.07827
-6.07827
-6.07827
-6.07827
-6.07827
-6.07827
-6.07827
-6.56453
-6.56453
-6.56453
-6.56453
-6.56453
-6.56453
-6.56453
-6.56453
-6.56453
-6.56453
-6.56453
-6.56453
-6.56453
-6.56453
-6.56453
-6.56453
-6.56453
-6.56453
-6.56453
-6.56453
-7.05079
-7.05079
-7.05079
-7.05079
-7.05079
-7.05079
-7.05079
-7.05079
-7.05079
-7.05079
-7.05079
-7.05079
-7.05079
-7.05079
-7.05079
-7.05079
-7.05079
-7.05079
-7.05079
-7.05079
-7.53705
-7.53706
-7.53706
-7.53706
-7.53706
-7.53706
-7.53706
-7.53706
-7.53706
-7.53706
-7.53706
-7.53706
-7.53706
-7.53706
-7.53706
-7.53706
-7.53706
-7.53706
-7.53706
-7.53706
-8.02332
-8.02332
-8.02332
-8.02332
-8.02332
-8.02332
-8.02332
-8.02332
-8.02332
-8.02332
-8.02332
-8.02332
-8.02332
-8.02332
-8.02332
-8.02332
-8.02332
-8.02332
-8.02332
-8.02332
-8.50958
-8.50958
-8.50958
-8.50958
-8.50958
-8.50958
-8.50958
-8.50958
-8.50958
-8.50958
-8.50958
-8.50958
-8.50958
-8.50958
-8.50958
-8.50958
-8.50958
-8.50958
-8.50958
-8.50958
-8.99584
-8.99584
-8.99584
-8.99584
-8.99584
-8.99584
-8.99584
-8.99584
-8.99584
-8.99584
-8.99584
-8.99584
-8.99584
-8.99584
-8.99584
-8.99584
-8.99584
-8.99584
-8.99584
-8.99584
-9.4821
-9.4821
-9.4821
-9.4821
-9.4821
-9.4821
-9.4821
-9.4821
-9.4821
-9.4821
-9.4821
-9.4821
-9.4821
-9.4821
-9.4821
-9.4821
-9.4821
-9.4821
-9.4821
-9.4821
-9.96836
-9.96836
-9.96836
-9.96836
-9.96836
-9.96836
-9.96836
-9.96836
-9.96836
-9.96836
-9.96836
-9.96836
-9.96836
-9.96836
-9.96836
-9.96836
-9.96836
-9.96836
-9.96836
-9.96836
-10.4546
-10.4546
-10.4546
-10.4546
-10.4546
-10.4546
-10.4546
-10.4546
-10.4546
-10.4546
-10.4546
-10.4546
-10.4546
-10.4546
-10.4546
-10.4546
-10.4546
-10.4546
-10.4546
-10.4546
-10.9409
-10.9409
-10.9409
-10.9409
-10.9409
-10.9409
-10.9409
-10.9409
-10.9409
-10.9409
-10.9409
-10.9409
-10.9409
-10.9409
-10.9409
-10.9409
-10.9409
-10.9409
-10.9409
-10.9409
-11.4272
-11.4272
-11.4272
-11.4272
-11.4272
-11.4271
-11.4271
-11.4271
-11.4271
-11.4271
-11.4271
-11.4271
-11.4271
-11.4271
-11.4271
-11.4271
-11.4271
-11.4271
-11.4271
-11.4271
-11.9134
-11.9134
-11.9134
-11.9134
-11.9134
-11.9134
-11.9134
-11.9134
-11.9134
-11.9134
-11.9134
-11.9134
-11.9134
-11.9134
-11.9134
-11.9134
-11.9134
-11.9134
-11.9134
-11.9134
-12.3997
-12.3997
-12.3997
-12.3997
-12.3997
-12.3997
-12.3997
-12.3997
-12.3997
-12.3997
-12.3997
-12.3997
-12.3997
-12.3997
-12.3997
-12.3997
-12.3997
-12.3997
-12.3997
-12.3997
-12.8859
-12.8859
-12.8859
-12.8859
-12.8859
-12.8859
-12.8859
-12.8859
-12.8859
-12.8859
-12.8859
-12.8859
-12.8859
-12.8859
-12.8859
-12.8859
-12.8859
-12.8859
-12.8859
-12.8859
-13.3722
-13.3722
-13.3722
-13.3722
-13.3722
-13.3722
-13.3722
-13.3722
-13.3722
-13.3722
-13.3722
-13.3722
-13.3722
-13.3722
-13.3722
-13.3722
-13.3722
-13.3722
-13.3722
-13.3722
-13.8585
-13.8585
-13.8585
-13.8585
-13.8585
-13.8585
-13.8585
-13.8585
-13.8585
-13.8585
-13.8585
-13.8585
-13.8585
-13.8585
-13.8585
-13.8585
-13.8585
-13.8585
-13.8585
-13.8585
-14.3447
-14.3447
-14.3447
-14.3447
-14.3447
-14.3447
-14.3447
-14.3447
-14.3447
-14.3447
-14.3447
-14.3447
-14.3447
-14.3447
-14.3447
-14.3447
-14.3447
-14.3447
-14.3447
-14.3447
-14.831
-14.831
-14.831
-14.831
-14.831
-14.831
-14.831
-14.831
-14.831
-14.831
-14.831
-14.831
-14.831
-14.831
-14.831
-14.831
-14.831
-14.831
-14.831
-14.831
-15.3172
-15.3172
-15.3172
-15.3172
-15.3172
-15.3172
-15.3172
-15.3172
-15.3172
-15.3172
-15.3172
-15.3172
-15.3172
-15.3172
-15.3172
-15.3172
-15.3172
-15.3172
-15.3172
-15.3172
-15.8035
-15.8035
-15.8035
-15.8035
-15.8035
-15.8035
-15.8035
-15.8035
-15.8035
-15.8035
-15.8035
-15.8035
-15.8035
-15.8035
-15.8035
-15.8035
-15.8035
-15.8035
-15.8035
-15.8035
-16.2898
-16.2898
-16.2898
-16.2898
-16.2898
-16.2898
-16.2898
-16.2898
-16.2898
-16.2898
-16.2898
-16.2898
-16.2898
-16.2898
-16.2898
-16.2898
-16.2898
-16.2898
-16.2898
-16.2898
-16.776
-16.776
-16.776
-16.776
-16.776
-16.776
-16.776
-16.776
-16.776
-16.776
-16.776
-16.776
-16.776
-16.776
-16.776
-16.776
-16.776
-16.776
-16.776
-16.776
-17.2623
-17.2623
-17.2623
-17.2623
-17.2623
-17.2623
-17.2623
-17.2623
-17.2623
-17.2623
-17.2623
-17.2623
-17.2623
-17.2623
-17.2623
-17.2623
-17.2623
-17.2623
-17.2623
-17.2623
-17.7486
-17.7486
-17.7486
-17.7486
-17.7486
-17.7486
-17.7486
-17.7486
-17.7486
-17.7486
-17.7486
-17.7486
-17.7486
-17.7486
-17.7486
-17.7486
-17.7486
-17.7486
-17.7486
-17.7486
-18.2348
-18.2348
-18.2348
-18.2348
-18.2348
-18.2348
-18.2348
-18.2348
-18.2348
-18.2348
-18.2348
-18.2348
-18.2348
-18.2348
-18.2348
-18.2348
-18.2348
-18.2348
-18.2348
-18.2348
-18.7211
-18.7211
-18.7211
-18.7211
-18.7211
-18.7211
-18.7211
-18.7211
-18.7211
-18.7211
-18.7211
-18.7211
-18.7211
-18.7211
-18.7211
-18.7211
-18.7211
-18.7211
-18.7211
-18.7211
-19.2073
-19.2073
-19.2073
-19.2073
-19.2073
-19.2073
-19.2073
-19.2073
-19.2073
-19.2073
-19.2073
-19.2073
-19.2073
-19.2073
-19.2073
-19.2073
-19.2073
-19.2073
-19.2073
-19.2073
-19.6936
-19.6936
-19.6936
-19.6936
-19.6936
-19.6936
-19.6936
-19.6936
-19.6936
-19.6936
-19.6936
-19.6936
-19.6936
-19.6936
-19.6936
-19.6936
-19.6936
-19.6936
-19.6936
-19.6936
-20.1799
-20.1799
-20.1799
-20.1799
-20.1799
-20.1799
-20.1799
-20.1799
-20.1799
-20.1799
-20.1799
-20.1799
-20.1799
-20.1799
-20.1799
-20.1799
-20.1799
-20.1799
-20.1799
-20.1799
-20.6661
-20.6661
-20.6661
-20.6661
-20.6661
-20.6661
-20.6661
-20.6661
-20.6661
-20.6661
-20.6661
-20.6661
-20.6661
-20.6661
-20.6661
-20.6661
-20.6661
-20.6661
-20.6661
-20.6661
-21.1524
-21.1524
-21.1524
-21.1524
-21.1524
-21.1524
-21.1524
-21.1524
-21.1524
-21.1524
-21.1524
-21.1524
-21.1524
-21.1524
-21.1524
-21.1524
-21.1524
-21.1524
-21.1524
-21.1524
-21.6386
-21.6386
-21.6386
-21.6386
-21.6386
-21.6386
-21.6386
-21.6386
-21.6386
-21.6386
-21.6386
-21.6386
-21.6386
-21.6386
-21.6386
-21.6386
-21.6386
-21.6386
-21.6386
-21.6386
-22.1249
-22.1249
-22.1249
-22.1249
-22.1249
-22.1249
-22.1249
-22.1249
-22.1249
-22.1249
-22.1249
-22.1249
-22.1249
-22.1249
-22.1249
-22.1249
-22.1249
-22.1249
-22.1249
-22.1249
-22.6112
-22.6112
-22.6112
-22.6112
-22.6112
-22.6112
-22.6112
-22.6112
-22.6112
-22.6112
-22.6112
-22.6112
-22.6112
-22.6112
-22.6112
-22.6112
-22.6112
-22.6112
-22.6112
-22.6112
-23.0974
-23.0974
-23.0974
-23.0974
-23.0974
-23.0974
-23.0974
-23.0974
-23.0974
-23.0974
-23.0974
-23.0974
-23.0974
-23.0974
-23.0974
-23.0974
-23.0974
-23.0974
-23.0974
-23.0974
-23.5837
-23.5837
-23.5837
-23.5837
-23.5837
-23.5837
-23.5837
-23.5837
-23.5837
-23.5837
-23.5837
-23.5837
-23.5837
-23.5837
-23.5837
-23.5837
-23.5837
-23.5837
-23.5837
-23.5837
-24.07
-24.07
-24.07
-24.07
-24.07
-24.07
-24.07
-24.07
-24.07
-24.07
-24.07
-24.07
-24.07
-24.07
-24.07
-24.07
-24.07
-24.07
-24.07
-24.07
-24.5562
-24.5562
-24.5562
-24.5562
-24.5562
-24.5562
-24.5562
-24.5562
-24.5562
-24.5562
-24.5562
-24.5562
-24.5562
-24.5562
-24.5562
-24.5562
-24.5562
-24.5562
-24.5562
-24.5562
-25.0425
-25.0425
-25.0425
-25.0425
-25.0425
-25.0425
-25.0425
-25.0425
-25.0425
-25.0425
-25.0425
-25.0425
-25.0425
-25.0425
-25.0425
-25.0425
-25.0425
-25.0425
-25.0425
-25.0425
-25.5287
-25.5287
-25.5287
-25.5287
-25.5287
-25.5287
-25.5287
-25.5287
-25.5287
-25.5287
-25.5287
-25.5287
-25.5287
-25.5287
-25.5287
-25.5287
-25.5287
-25.5287
-25.5287
-25.5287
-26.015
-26.015
-26.015
-26.015
-26.015
-26.015
-26.015
-26.015
-26.015
-26.015
-26.015
-26.015
-26.015
-26.015
-26.015
-26.015
-26.015
-26.015
-26.015
-26.015
-26.5013
-26.5013
-26.5013
-26.5013
-26.5013
-26.5013
-26.5013
-26.5013
-26.5013
-26.5013
-26.5013
-26.5013
-26.5013
-26.5013
-26.5013
-26.5013
-26.5013
-26.5013
-26.5013
-26.5013
-26.9875
-26.9875
-26.9875
-26.9875
-26.9875
-26.9875
-26.9875
-26.9875
-26.9875
-26.9875
-26.9875
-26.9875
-26.9875
-26.9875
-26.9875
-26.9875
-26.9875
-26.9875
-26.9875
-26.9875
-27.4738
-27.4738
-27.4738
-27.4738
-27.4738
-27.4738
-27.4738
-27.4738
-27.4738
-27.4738
-27.4738
-27.4738
-27.4738
-27.4738
-27.4738
-27.4738
-27.4738
-27.4738
-27.4738
-27.4738
-27.96
-27.96
-27.96
-27.96
-27.96
-27.96
-27.96
-27.96
-27.96
-27.96
-27.96
-27.96
-27.96
-27.96
-27.96
-27.96
-27.96
-27.96
-27.96
-27.96
-28.4463
-28.4463
-28.4463
-28.4463
-28.4463
-28.4463
-28.4463
-28.4463
-28.4463
-28.4463
-28.4463
-28.4463
-28.4463
-28.4463
-28.4463
-28.4463
-28.4463
-28.4463
-28.4463
-28.4463
-28.9326
-28.9326
-28.9326
-28.9326
-28.9326
-28.9326
-28.9326
-28.9326
-28.9326
-28.9326
-28.9326
-28.9326
-28.9326
-28.9326
-28.9326
-28.9326
-28.9326
-28.9326
-28.9326
-28.9326
-29.4188
-29.4188
-29.4188
-29.4188
-29.4188
-29.4188
-29.4188
-29.4188
-29.4188
-29.4188
-29.4188
-29.4188
-29.4188
-29.4188
-29.4188
-29.4188
-29.4188
-29.4188
-29.4188
-29.4188
-29.9051
-29.9051
-29.9051
-29.9051
-29.9051
-29.9051
-29.9051
-29.9051
-29.9051
-29.9051
-29.9051
-29.9051
-29.9051
-29.9051
-29.9051
-29.9051
-29.9051
-29.9051
-29.9051
-29.9051
-30.3914
-30.3914
-30.3914
-30.3914
-30.3914
-30.3914
-30.3914
-30.3914
-30.3914
-30.3914
-30.3914
-30.3914
-30.3914
-30.3914
-30.3914
-30.3914
-30.3914
-30.3914
-30.3914
-30.3914
-30.8776
-30.8776
-30.8776
-30.8776
-30.8776
-30.8776
-30.8776
-30.8776
-30.8776
-30.8776
-30.8776
-30.8776
-30.8776
-30.8776
-30.8776
-30.8776
-30.8776
-30.8776
-30.8776
-30.8776
-31.3639
-31.3639
-31.3639
-31.3639
-31.3639
-31.3639
-31.3639
-31.3639
-31.3639
-31.3639
-31.3639
-31.3639
-31.3639
-31.3639
-31.3639
-31.3639
-31.3639
-31.3639
-31.3639
-31.3639
-31.8501
-31.8501
-31.8501
-31.8501
-31.8501
-31.8501
-31.8501
-31.8501
-31.8501
-31.8501
-31.8501
-31.8501
-31.8501
-31.8501
-31.8501
-31.8501
-31.8501
-31.8501
-31.8501
-31.8501
-32.3364
-32.3364
-32.3364
-32.3364
-32.3364
-32.3364
-32.3364
-32.3364
-32.3364
-32.3364
-32.3364
-32.3364
-32.3364
-32.3364
-32.3364
-32.3364
-32.3364
-32.3364
-32.3364
-32.3364
-32.8227
-32.8227
-32.8227
-32.8227
-32.8227
-32.8227
-32.8227
-32.8227
-32.8227
-32.8227
-32.8227
-32.8227
-32.8227
-32.8227
-32.8227
-32.8227
-32.8227
-32.8227
-32.8227
-32.8227
-33.3089
-33.3089
-33.3089
-33.3089
-33.3089
-33.3089
-33.3089
-33.3089
-33.3089
-33.3089
-33.3089
-33.3089
-33.3089
-33.3089
-33.3089
-33.3089
-33.3089
-33.3089
-33.3089
-33.3089
-33.7952
-33.7952
-33.7952
-33.7952
-33.7952
-33.7952
-33.7952
-33.7952
-33.7952
-33.7952
-33.7952
-33.7952
-33.7952
-33.7952
-33.7952
-33.7952
-33.7952
-33.7952
-33.7952
-33.7952
-34.2814
-34.2814
-34.2814
-34.2814
-34.2814
-34.2814
-34.2814
-34.2814
-34.2814
-34.2814
-34.2814
-34.2814
-34.2814
-34.2814
-34.2814
-34.2814
-34.2814
-34.2814
-34.2814
-34.2814
-34.7677
-34.7677
-34.7677
-34.7677
-34.7677
-34.7677
-34.7677
-34.7677
-34.7677
-34.7677
-34.7677
-34.7677
-34.7677
-34.7677
-34.7677
-34.7677
-34.7677
-34.7677
-34.7677
-34.7677
-35.254
-35.254
-35.254
-35.254
-35.254
-35.254
-35.254
-35.254
-35.254
-35.254
-35.254
-35.254
-35.254
-35.254
-35.254
-35.254
-35.254
-35.254
-35.254
-35.254
-35.7402
-35.7402
-35.7402
-35.7402
-35.7402
-35.7402
-35.7402
-35.7402
-35.7402
-35.7402
-35.7402
-35.7402
-35.7402
-35.7402
-35.7402
-35.7402
-35.7402
-35.7402
-35.7402
-35.7402
-36.2265
-36.2265
-36.2265
-36.2265
-36.2265
-36.2265
-36.2265
-36.2265
-36.2265
-36.2265
-36.2265
-36.2265
-36.2265
-36.2265
-36.2265
-36.2265
-36.2265
-36.2265
-36.2265
-36.2265
-36.7128
-36.7128
-36.7128
-36.7128
-36.7128
-36.7128
-36.7128
-36.7128
-36.7128
-36.7128
-36.7128
-36.7128
-36.7128
-36.7128
-36.7128
-36.7128
-36.7128
-36.7128
-36.7128
-36.7128
-37.199
-37.199
-37.199
-37.199
-37.199
-37.199
-37.199
-37.199
-37.199
-37.199
-37.199
-37.199
-37.199
-37.199
-37.199
-37.199
-37.199
-37.199
-37.199
-37.199
-37.6853
-37.6853
-37.6853
-37.6853
-37.6853
-37.6853
-37.6853
-37.6853
-37.6853
-37.6853
-37.6853
-37.6853
-37.6853
-37.6853
-37.6853
-37.6853
-37.6853
-37.6853
-37.6853
-37.6853
-38.1715
-38.1715
-38.1715
-38.1715
-38.1715
-38.1715
-38.1715
-38.1715
-38.1715
-38.1715
-38.1715
-38.1715
-38.1715
-38.1715
-38.1715
-38.1715
-38.1715
-38.1715
-38.1715
-38.1715
-38.6578
-38.6578
-38.6578
-38.6578
-38.6578
-38.6578
-38.6578
-38.6578
-38.6578
-38.6578
-38.6578
-38.6578
-38.6578
-38.6578
-38.6578
-38.6578
-38.6578
-38.6578
-38.6578
-38.6578
-39.1441
-39.1441
-39.1441
-39.1441
-39.1441
-39.1441
-39.1441
-39.1441
-39.1441
-39.1441
-39.1441
-39.1441
-39.1441
-39.1441
-39.1441
-39.1441
-39.1441
-39.1441
-39.1441
-39.1441
-39.6303
-39.6303
-39.6303
-39.6303
-39.6303
-39.6303
-39.6303
-39.6303
-39.6303
-39.6303
-39.6303
-39.6303
-39.6303
-39.6303
-39.6303
-39.6303
-39.6303
-39.6303
-39.6303
-39.6303
-40.1166
-40.1166
-40.1166
-40.1166
-40.1166
-40.1166
-40.1166
-40.1166
-40.1166
-40.1166
-40.1166
-40.1166
-40.1166
-40.1166
-40.1166
-40.1166
-40.1166
-40.1166
-40.1166
-40.1166
-40.6029
-40.6029
-40.6029
-40.6029
-40.6029
-40.6029
-40.6029
-40.6029
-40.6029
-40.6029
-40.6029
-40.6029
-40.6029
-40.6029
-40.6029
-40.6029
-40.6029
-40.6029
-40.6029
-40.6029
-41.0891
-41.0891
-41.0891
-41.0891
-41.0891
-41.0891
-41.0891
-41.0891
-41.0891
-41.0891
-41.0891
-41.0891
-41.0891
-41.0891
-41.0891
-41.0891
-41.0891
-41.0891
-41.0891
-41.0891
-41.5754
-41.5754
-41.5754
-41.5754
-41.5754
-41.5754
-41.5754
-41.5754
-41.5754
-41.5754
-41.5754
-41.5754
-41.5754
-41.5754
-41.5754
-41.5754
-41.5754
-41.5754
-41.5754
-41.5754
-42.0616
-42.0616
-42.0616
-42.0616
-42.0616
-42.0616
-42.0616
-42.0616
-42.0616
-42.0616
-42.0616
-42.0616
-42.0616
-42.0616
-42.0616
-42.0616
-42.0616
-42.0616
-42.0616
-42.0616
-42.5479
-42.5479
-42.5479
-42.5479
-42.5479
-42.5479
-42.5479
-42.5479
-42.5479
-42.5479
-42.5479
-42.5479
-42.5479
-42.5479
-42.5479
-42.5479
-42.5479
-42.5479
-42.5479
-42.5479
-43.0342
-43.0342
-43.0342
-43.0342
-43.0342
-43.0342
-43.0342
-43.0342
-43.0342
-43.0342
-43.0342
-43.0342
-43.0342
-43.0342
-43.0342
-43.0342
-43.0342
-43.0342
-43.0342
-43.0342
-43.5204
-43.5204
-43.5204
-43.5204
-43.5204
-43.5204
-43.5204
-43.5204
-43.5204
-43.5204
-43.5204
-43.5204
-43.5204
-43.5204
-43.5204
-43.5204
-43.5204
-43.5204
-43.5204
-43.5204
-44.0067
-44.0067
-44.0067
-44.0067
-44.0067
-44.0067
-44.0067
-44.0067
-44.0067
-44.0067
-44.0067
-44.0067
-44.0067
-44.0067
-44.0067
-44.0067
-44.0067
-44.0067
-44.0067
-44.0067
-44.4929
-44.4929
-44.4929
-44.4929
-44.4929
-44.4929
-44.4929
-44.4929
-44.4929
-44.4929
-44.4929
-44.4929
-44.4929
-44.4929
-44.4929
-44.4929
-44.4929
-44.4929
-44.4929
-44.4929
-44.9792
-44.9792
-44.9792
-44.9792
-44.9792
-44.9792
-44.9792
-44.9792
-44.9792
-44.9792
-44.9792
-44.9792
-44.9792
-44.9792
-44.9792
-44.9792
-44.9792
-44.9792
-44.9792
-44.9792
-45.4655
-45.4655
-45.4655
-45.4655
-45.4655
-45.4655
-45.4655
-45.4655
-45.4655
-45.4655
-45.4655
-45.4655
-45.4655
-45.4655
-45.4655
-45.4655
-45.4655
-45.4655
-45.4655
-45.4655
-45.9517
-45.9517
-45.9517
-45.9517
-45.9517
-45.9517
-45.9517
-45.9517
-45.9517
-45.9517
-45.9517
-45.9517
-45.9517
-45.9517
-45.9517
-45.9517
-45.9517
-45.9517
-45.9517
-45.9517
-46.438
-46.438
-46.438
-46.438
-46.438
-46.438
-46.438
-46.438
-46.438
-46.438
-46.438
-46.438
-46.438
-46.438
-46.438
-46.438
-46.438
-46.438
-46.438
-46.438
-46.9243
-46.9243
-46.9243
-46.9243
-46.9243
-46.9243
-46.9243
-46.9243
-46.9243
-46.9243
-46.9243
-46.9243
-46.9242
-46.9242
-46.9242
-46.9242
-46.9242
-46.9242
-46.9242
-46.9242
-47.4105
-47.4105
-47.4105
-47.4105
-47.4105
-47.4105
-47.4105
-47.4105
-47.4105
-47.4105
-47.4105
-47.4105
-47.4105
-47.4105
-47.4105
-47.4105
-47.4105
-47.4105
-47.4105
-47.4105
-47.8968
-47.8968
-47.8968
-47.8968
-47.8968
-47.8968
-47.8968
-47.8968
-47.8968
-47.8968
-47.8968
-47.8968
-47.8968
-47.8968
-47.8968
-47.8968
-47.8968
-47.8968
-47.8968
-47.8968
-48.383
-48.383
-48.383
-48.383
-48.383
-48.383
-48.383
-48.383
-48.383
-48.383
-48.383
-48.383
-48.383
-48.383
-48.383
-48.383
-48.383
-48.383
-48.383
-48.383
-48.8693
-48.8693
-48.8693
-48.8693
-48.8693
-48.8693
-48.8693
-48.8693
-48.8693
-48.8693
-48.8693
-48.8693
-48.8693
-48.8693
-48.8693
-48.8693
-48.8693
-48.8693
-48.8693
-48.8693
-49.3556
-49.3556
-49.3556
-49.3556
-49.3556
-49.3556
-49.3556
-49.3556
-49.3556
-49.3556
-49.3556
-49.3556
-49.3556
-49.3556
-49.3556
-49.3556
-49.3556
-49.3556
-49.3556
-49.3556
-49.8418
-49.8418
-49.8418
-49.8418
-49.8418
-49.8418
-49.8418
-49.8418
-49.8418
-49.8418
-49.8418
-49.8418
-49.8418
-49.8418
-49.8418
-49.8418
-49.8418
-49.8418
-49.8418
-49.8418
-50.3281
-50.3281
-50.3281
-50.3281
-50.3281
-50.3281
-50.3281
-50.3281
-50.3281
-50.3281
-50.3281
-50.3281
-50.3281
-50.3281
-50.3281
-50.3281
-50.3281
-50.3281
-50.3281
-50.3281
-50.8143
-50.8143
-50.8143
-50.8143
-50.8143
-50.8143
-50.8143
-50.8143
-50.8143
-50.8143
-50.8143
-50.8143
-50.8143
-50.8143
-50.8143
-50.8143
-50.8143
-50.8143
-50.8143
-50.8143
-51.3006
-51.3006
-51.3006
-51.3006
-51.3006
-51.3006
-51.3006
-51.3006
-51.3006
-51.3006
-51.3006
-51.3006
-51.3006
-51.3006
-51.3006
-51.3006
-51.3006
-51.3006
-51.3006
-51.3006
-51.7869
-51.7869
-51.7869
-51.7869
-51.7869
-51.7869
-51.7869
-51.7869
-51.7869
-51.7869
-51.7869
-51.7869
-51.7869
-51.7869
-51.7869
-51.7869
-51.7869
-51.7869
-51.7869
-51.7869
-52.2731
-52.2731
-52.2731
-52.2731
-52.2731
-52.2731
-52.2731
-52.2731
-52.2731
-52.2731
-52.2731
-52.2731
-52.2731
-52.2731
-52.2731
-52.2731
-52.2731
-52.2731
-52.2731
-52.2731
-52.7594
-52.7594
-52.7594
-52.7594
-52.7594
-52.7594
-52.7594
-52.7594
-52.7594
-52.7594
-52.7594
-52.7594
-52.7594
-52.7594
-52.7594
-52.7594
-52.7594
-52.7594
-52.7594
-52.7594
-53.2457
-53.2457
-53.2457
-53.2457
-53.2457
-53.2457
-53.2457
-53.2457
-53.2457
-53.2457
-53.2456
-53.2456
-53.2456
-53.2456
-53.2456
-53.2456
-53.2456
-53.2456
-53.2456
-53.2456
-53.7319
-53.7319
-53.7319
-53.7319
-53.7319
-53.7319
-53.7319
-53.7319
-53.7319
-53.7319
-53.7319
-53.7319
-53.7319
-53.7319
-53.7319
-53.7319
-53.7319
-53.7319
-53.7319
-53.7319
-54.2182
-54.2182
-54.2182
-54.2182
-54.2182
-54.2182
-54.2182
-54.2182
-54.2182
-54.2182
-54.2182
-54.2182
-54.2182
-54.2182
-54.2182
-54.2182
-54.2182
-54.2182
-54.2182
-54.2182
-54.7045
-54.7045
-54.7044
-54.7044
-54.7044
-54.7044
-54.7044
-54.7044
-54.7044
-54.7044
-54.7044
-54.7044
-54.7044
-54.7044
-54.7044
-54.7044
-54.7044
-54.7044
-54.7044
-54.7044
-55.1907
-55.1907
-55.1907
-55.1907
-55.1907
-55.1907
-55.1907
-55.1907
-55.1907
-55.1907
-55.1907
-55.1907
-55.1907
-55.1907
-55.1907
-55.1907
-55.1907
-55.1907
-55.1907
-55.1907
-55.677
-55.677
-55.677
-55.677
-55.677
-55.677
-55.677
-55.677
-55.677
-55.677
-55.677
-55.677
-55.6769
-55.6769
-55.6769
-55.6769
-55.6769
-55.6769
-55.6769
-55.6769
-56.1632
-56.1632
-56.1632
-56.1632
-56.1632
-56.1632
-56.1632
-56.1632
-56.1632
-56.1632
-56.1632
-56.1632
-56.1632
-56.1632
-56.1632
-56.1632
-56.1632
-56.1632
-56.1632
-56.1632
-56.6495
-56.6495
-56.6495
-56.6495
-56.6495
-56.6495
-56.6495
-56.6495
-56.6495
-56.6495
-56.6495
-56.6495
-56.6495
-56.6495
-56.6495
-56.6495
-56.6495
-56.6494
-56.6494
-56.6494
-57.1358
-57.1358
-57.1358
-57.1358
-57.1358
-57.1358
-57.1358
-57.1358
-57.1358
-57.1357
-57.1357
-57.1357
-57.1357
-57.1357
-57.1357
-57.1357
-57.1357
-57.1357
-57.1357
-57.1357
-57.622
-57.622
-57.622
-57.622
-57.622
-57.622
-57.622
-57.622
-57.622
-57.622
-57.622
-57.622
-57.622
-57.622
-57.622
-57.622
-57.622
-57.622
-57.622
-57.622
-58.1083
-58.1083
-58.1083
-58.1083
-58.1083
-58.1083
-58.1083
-58.1083
-58.1083
-58.1083
-58.1083
-58.1083
-58.1082
-58.1082
-58.1082
-58.1082
-58.1082
-58.1082
-58.1082
-58.1082
-58.5946
-58.5946
-58.5946
-58.5946
-58.5946
-58.5946
-58.5946
-58.5945
-58.5945
-58.5945
-58.5945
-58.5945
-58.5945
-58.5945
-58.5945
-58.5945
-58.5945
-58.5945
-58.5945
-58.5945
-59.0809
-59.0809
-59.0809
-59.0808
-59.0808
-59.0808
-59.0808
-59.0808
-59.0808
-59.0808
-59.0808
-59.0808
-59.0808
-59.0807
-59.0807
-59.0807
-59.0807
-59.0807
-59.0807
-59.0807
-59.5671
-59.5671
-59.5671
-59.5671
-59.5671
-59.5671
-59.5671
-59.5671
-59.5671
-59.5671
-59.567
-59.567
-59.567
-59.567
-59.567
-59.567
-59.567
-59.567
-59.567
-59.567
-60.0534
-60.0534
-60.0534
-60.0534
-60.0534
-60.0534
-60.0534
-60.0533
-60.0533
-60.0533
-60.0533
-60.0533
-60.0533
-60.0533
-60.0532
-60.0532
-60.0532
-60.0532
-60.0532
-60.0532
-60.5397
-60.5397
-60.5397
-60.5397
-60.5397
-60.5396
-60.5396
-60.5396
-60.5396
-60.5396
-60.5396
-60.5395
-60.5395
-60.5395
-60.5395
-60.5395
-60.5395
-60.5395
-60.5395
-60.5395
-61.026
-61.026
-61.026
-61.026
-61.0259
-61.0259
-61.0259
-61.0259
-61.0259
-61.0258
-61.0258
-61.0258
-61.0258
-61.0258
-61.0257
-61.0257
-61.0257
-61.0257
-61.0257
-61.0257
-61.5123
-61.5123
-61.5122
-61.5122
-61.5122
-61.5122
-61.5122
-61.5122
-61.5121
-61.5121
-61.5121
-61.5121
-61.512
-61.512
-61.512
-61.512
-61.512
-61.5119
-61.5119
-61.5119
-61.9985
-61.9985
-61.9985
-61.9985
-61.9985
-61.9985
-61.9985
-61.9984
-61.9984
-61.9984
-61.9983
-61.9983
-61.9983
-61.9983
-61.9982
-61.9982
-61.9982
-61.9982
-61.9982
-61.9982
-62.4848
-62.4848
-62.4848
-62.4848
-62.4848
-62.4848
-62.4847
-62.4847
-62.4847
-62.4846
-62.4846
-62.4846
-62.4845
-62.4845
-62.4845
-62.4844
-62.4844
-62.4844
-62.4844
-62.4844
-62.9711
-62.9711
-62.9711
-62.9711
-62.9711
-62.971
-62.971
-62.971
-62.9709
-62.9709
-62.9709
-62.9708
-62.9708
-62.9707
-62.9707
-62.9707
-62.9707
-62.9706
-62.9706
-62.9706
-63.4574
-63.4574
-63.4574
-63.4574
-63.4574
-63.4573
-63.4573
-63.4573
-63.4572
-63.4572
-63.4571
-63.4571
-63.457
-63.457
-63.4569
-63.4569
-63.4569
-63.4569
-63.4568
-63.4568
-63.9438
-63.9437
-63.9437
-63.9437
-63.9437
-63.9436
-63.9436
-63.9435
-63.9435
-63.9434
-63.9434
-63.9433
-63.9433
-63.9432
-63.9432
-63.9431
-63.9431
-63.9431
-63.9431
-63.943
-64.4301
-64.4301
-64.43
-64.43
-64.43
-64.4299
-64.4299
-64.4298
-64.4298
-64.4297
-64.4296
-64.4296
-64.4295
-64.4294
-64.4294
-64.4293
-64.4293
-64.4293
-64.4293
-64.4293
-64.9164
-64.9164
-64.9164
-64.9163
-64.9163
-64.9162
-64.9162
-64.9161
-64.916
-64.916
-64.9159
-64.9158
-64.9157
-64.9157
-64.9156
-64.9156
-64.9155
-64.9155
-64.9155
-64.9154
-65.4028
-65.4027
-65.4027
-65.4027
-65.4026
-65.4026
-65.4025
-65.4024
-65.4023
-65.4022
-65.4021
-65.4021
-65.402
-65.4019
-65.4018
-65.4018
-65.4017
-65.4017
-65.4016
-65.4016
-65.8891
-65.8891
-65.8891
-65.889
-65.889
-65.8889
-65.8888
-65.8887
-65.8886
-65.8885
-65.8884
-65.8883
-65.8882
-65.8881
-65.888
-65.8879
-65.8879
-65.8878
-65.8878
-65.8878
-66.3755
-66.3755
-66.3754
-66.3754
-66.3753
-66.3752
-66.3751
-66.375
-66.3749
-66.3748
-66.3746
-66.3745
-66.3744
-66.3743
-66.3742
-66.3741
-66.374
-66.374
-66.374
-66.3739
-66.8619
-66.8619
-66.8618
-66.8617
-66.8617
-66.8616
-66.8614
-66.8613
-66.8612
-66.861
-66.8609
-66.8608
-66.8606
-66.8605
-66.8604
-66.8603
-66.8602
-66.8601
-66.8601
-66.8601
-67.3483
-67.3483
-67.3482
-67.3481
-67.348
-67.3479
-67.3478
-67.3476
-67.3475
-67.3473
-67.3471
-67.347
-67.3468
-67.3467
-67.3465
-67.3464
-67.3463
-67.3463
-67.3462
-67.3462
-67.8347
-67.8347
-67.8346
-67.8346
-67.8344
-67.8343
-67.8341
-67.834
-67.8338
-67.8336
-67.8334
-67.8332
-67.833
-67.8328
-67.8327
-67.8325
-67.8324
-67.8323
-67.8323
-67.8323
-68.3212
-68.3212
-68.3211
-68.321
-68.3209
-68.3207
-68.3205
-68.3203
-68.3201
-68.3199
-68.3196
-68.3194
-68.3192
-68.319
-68.3188
-68.3186
-68.3185
-68.3184
-68.3183
-68.3183
-68.8077
-68.8077
-68.8076
-68.8075
-68.8073
-68.8071
-68.8069
-68.8067
-68.8064
-68.8062
-68.8059
-68.8056
-68.8054
-68.8051
-68.8049
-68.8047
-68.8046
-68.8044
-68.8044
-68.8043
-69.2943
-69.2942
-69.2941
-69.294
-69.2938
-69.2936
-69.2933
-69.293
-69.2927
-69.2924
-69.2921
-69.2918
-69.2915
-69.2912
-69.291
-69.2908
-69.2906
-69.2904
-69.2903
-69.2903
-69.7809
-69.7808
-69.7807
-69.7805
-69.7803
-69.7801
-69.7798
-69.7794
-69.7791
-69.7787
-69.7784
-69.778
-69.7777
-69.7773
-69.777
-69.7768
-69.7766
-69.7764
-69.7763
-69.7762
-70.2675
-70.2674
-70.2673
-70.2671
-70.2669
-70.2666
-70.2662
-70.2658
-70.2654
-70.265
-70.2646
-70.2642
-70.2638
-70.2634
-70.263
-70.2627
-70.2625
-70.2623
-70.2622
-70.2621
-70.7542
-70.7542
-70.754
-70.7538
-70.7535
-70.7531
-70.7527
-70.7523
-70.7518
-70.7513
-70.7508
-70.7503
-70.7498
-70.7494
-70.749
-70.7486
-70.7484
-70.7481
-70.748
-70.7479
-71.241
-71.2409
-71.2408
-71.2405
-71.2402
-71.2397
-71.2393
-71.2387
-71.2382
-71.2376
-71.237
-71.2365
-71.2359
-71.2354
-71.2349
-71.2345
-71.2342
-71.2339
-71.2337
-71.2336
-71.7279
-71.7278
-71.7276
-71.7273
-71.7269
-71.7264
-71.7259
-71.7253
-71.7246
-71.7239
-71.7232
-71.7226
-71.7219
-71.7213
-71.7208
-71.7203
-71.7199
-71.7196
-71.7194
-71.7192
-72.2149
-72.2148
-72.2145
-72.2142
-72.2137
-72.2132
-72.2125
-72.2118
-72.211
-72.2102
-72.2095
-72.2087
-72.2079
-72.2072
-72.2065
-72.206
-72.2055
-72.2052
-72.2049
-72.2048
-72.702
-72.7019
-72.7016
-72.7012
-72.7006
-72.7
-72.6992
-72.6984
-72.6975
-72.6966
-72.6956
-72.6947
-72.6938
-72.693
-72.6923
-72.6916
-72.691
-72.6906
-72.6903
-72.6902
-73.1893
-73.1891
-73.1888
-73.1883
-73.1877
-73.1869
-73.186
-73.185
-73.184
-73.1829
-73.1818
-73.1808
-73.1797
-73.1787
-73.1779
-73.1771
-73.1765
-73.176
-73.1756
-73.1754
-73.6767
-73.6765
-73.6761
-73.6756
-73.6748
-73.6739
-73.6729
-73.6717
-73.6705
-73.6693
-73.668
-73.6667
-73.6655
-73.6644
-73.6634
-73.6625
-73.6617
-73.6611
-73.6607
-73.6605
-74.1644
-74.1641
-74.1637
-74.163
-74.1621
-74.1611
-74.1599
-74.1585
-74.1571
-74.1556
-74.1542
-74.1527
-74.1513
-74.1499
-74.1487
-74.1477
-74.1468
-74.1461
-74.1457
-74.1454
-74.6522
-74.6519
-74.6514
-74.6506
-74.6496
-74.6484
-74.647
-74.6454
-74.6437
-74.642
-74.6403
-74.6386
-74.6369
-74.6354
-74.634
-74.6327
-74.6317
-74.6309
-74.6304
-74.6301
-75.1404
-75.14
-75.1394
-75.1385
-75.1373
-75.1358
-75.1342
-75.1324
-75.1304
-75.1284
-75.1264
-75.1244
-75.1225
-75.1206
-75.119
-75.1176
-75.1164
-75.1155
-75.1148
-75.1145
-75.6289
-75.6284
-75.6277
-75.6266
-75.6252
-75.6235
-75.6216
-75.6195
-75.6172
-75.6149
-75.6125
-75.6101
-75.6079
-75.6058
-75.6038
-75.6021
-75.6007
-75.5997
-75.5989
-75.5986
-76.1178
-76.1171
-76.1164
-76.115
-76.1134
-76.1114
-76.1092
-76.1067
-76.1041
-76.1013
-76.0985
-76.0958
-76.0932
-76.0907
-76.0884
-76.0865
-76.0848
-76.0837
-76.0826
-76.0825
-76.6072
-76.6061
-76.6054
-76.6038
-76.6019
-76.5996
-76.597
-76.5941
-76.591
-76.5878
-76.5846
-76.5814
-76.5783
-76.5754
-76.5727
-76.5704
-76.5685
-76.5672
-76.5659
-76.5659
-77.0944
-77.0955
-77.0948
-77.0929
-77.0907
-77.0881
-77.085
-77.0817
-77.0781
-77.0743
-77.0706
-77.0668
-77.0632
-77.0598
-77.0567
-77.054
-77.0517
-77.0501
-77.0484
-77.0462
-77.5862
-77.5854
-77.5847
-77.5825
-77.58
-77.577
-77.5734
-77.5695
-77.5653
-77.5609
-77.5565
-77.5521
-77.5479
-77.5439
-77.5403
-77.5371
-77.5344
-77.5325
-77.5303
-77.5299
-78.0797
-78.0748
-78.0756
-78.0728
-78.0699
-78.0663
-78.0621
-78.0576
-78.0527
-78.0476
-78.0424
-78.0373
-78.0323
-78.0277
-78.0234
-78.0197
-78.0165
-78.0146
-78.0105
-78.0138
-78.5718
-78.5653
-78.5668
-78.5634
-78.5602
-78.5561
-78.5513
-78.546
-78.5403
-78.5343
-78.5283
-78.5223
-78.5165
-78.511
-78.506
-78.5016
-78.4977
-78.4954
-78.4903
-78.4949
-78.9785
-79.0543
-79.0567
-79.0545
-79.0511
-79.0466
-79.041
-79.0348
-79.0281
-79.0211
-79.0141
-79.0071
-79.0003
-78.9939
-78.9879
-78.9826
-78.9777
-78.9734
-78.9667
-78.889
-79.5017
-79.5444
-79.5493
-79.5477
-79.5434
-79.5381
-79.5314
-79.5241
-79.5162
-79.508
-79.4998
-79.4916
-79.4838
-79.4764
-79.4696
-79.4634