/*--------------------------------*- C++ -*----------------------------------*\
| =========                 |                                                 |
| \\      /  F ield         | OpenFOAM: The Open Source CFD Toolbox           |
|  \\    /   O peration     | Version:  5.x                                   |
|   \\  /    A nd           | Web:      www.OpenFOAM.org                      |
|    \\/     M anipulation  |                                                 |
\*---------------------------------------------------------------------------*/
FoamFile
{
    version     2.0;
    format      ascii;
    class       volScalarField;
    location    "0.15";
    object      p_rgh;
}
// * * * * * * * * * * * * * * * * * * * * * * * * * * * * * * * * * * * * * //

dimensions      [1 -1 -2 0 0 0 0];

internalField   nonuniform List<scalar> 
8000
(
0.00686935
0.00686951
0.0068695
0.0068695
0.00686949
0.00686949
0.00686948
0.00686947
0.00686946
0.00686944
0.00686943
0.00686941
0.00686939
0.00686937
0.00686935
0.00686933
0.00686931
0.0068693
0.00686929
0.00686914
0.0206081
0.0206082
0.0206081
0.0206081
0.0206081
0.0206081
0.020608
0.020608
0.020608
0.0206079
0.0206079
0.0206078
0.0206078
0.0206077
0.0206076
0.0206076
0.0206076
0.0206075
0.0206075
0.0206073
0.0343467
0.0343466
0.0343466
0.0343466
0.0343466
0.0343465
0.0343465
0.0343464
0.0343463
0.0343462
0.0343461
0.034346
0.034346
0.0343459
0.0343458
0.0343457
0.0343457
0.0343456
0.0343456
0.0343452
0.0480852
0.0480852
0.0480852
0.0480851
0.0480851
0.048085
0.0480849
0.0480848
0.0480847
0.0480846
0.0480844
0.0480843
0.0480842
0.0480841
0.0480839
0.0480838
0.0480838
0.0480837
0.0480837
0.0480831
0.0618238
0.0618238
0.0618237
0.0618237
0.0618236
0.0618235
0.0618234
0.0618233
0.0618231
0.061823
0.0618228
0.0618226
0.0618224
0.0618223
0.0618221
0.061822
0.0618219
0.0618219
0.0618218
0.0618212
0.0755623
0.0755624
0.0755624
0.0755623
0.0755622
0.0755621
0.0755619
0.0755617
0.0755616
0.0755613
0.0755611
0.0755609
0.0755607
0.0755605
0.0755604
0.0755602
0.0755601
0.07556
0.07556
0.0755594
0.0893007
0.089301
0.089301
0.0893009
0.0893008
0.0893006
0.0893004
0.0893002
0.0893
0.0892997
0.0892995
0.0892992
0.089299
0.0892988
0.0892986
0.0892985
0.0892984
0.0892983
0.0892982
0.0892977
0.103039
0.10304
0.10304
0.103039
0.103039
0.103039
0.103039
0.103039
0.103038
0.103038
0.103038
0.103038
0.103037
0.103037
0.103037
0.103037
0.103037
0.103037
0.103037
0.103036
0.116778
0.116778
0.116778
0.116778
0.116778
0.116778
0.116777
0.116777
0.116777
0.116776
0.116776
0.116776
0.116776
0.116775
0.116775
0.116775
0.116775
0.116775
0.116775
0.116775
0.130516
0.130516
0.130516
0.130516
0.130516
0.130516
0.130516
0.130515
0.130515
0.130515
0.130514
0.130514
0.130514
0.130514
0.130514
0.130513
0.130513
0.130513
0.130513
0.130513
0.144254
0.144255
0.144255
0.144255
0.144254
0.144254
0.144254
0.144254
0.144253
0.144253
0.144253
0.144253
0.144252
0.144252
0.144252
0.144252
0.144252
0.144252
0.144252
0.144252
0.157993
0.157993
0.157993
0.157993
0.157992
0.157992
0.157992
0.157992
0.157992
0.157991
0.157991
0.157991
0.157991
0.157991
0.15799
0.15799
0.15799
0.15799
0.15799
0.15799
0.171731
0.171731
0.171731
0.171731
0.171731
0.17173
0.17173
0.17173
0.17173
0.17173
0.171729
0.171729
0.171729
0.171729
0.171729
0.171729
0.171729
0.171729
0.171729
0.171729
0.185469
0.185469
0.185469
0.185469
0.185469
0.185468
0.185468
0.185468
0.185468
0.185468
0.185468
0.185468
0.185468
0.185467
0.185467
0.185467
0.185467
0.185467
0.185467
0.185467
0.199207
0.199207
0.199207
0.199207
0.199207
0.199207
0.199206
0.199206
0.199206
0.199206
0.199206
0.199206
0.199206
0.199206
0.199206
0.199206
0.199206
0.199206
0.199206
0.199206
0.212945
0.212945
0.212945
0.212945
0.212945
0.212945
0.212945
0.212945
0.212945
0.212944
0.212944
0.212944
0.212944
0.212944
0.212944
0.212944
0.212944
0.212944
0.212944
0.212945
0.226683
0.226683
0.226683
0.226683
0.226683
0.226683
0.226683
0.226683
0.226683
0.226683
0.226683
0.226683
0.226683
0.226683
0.226683
0.226683
0.226683
0.226683
0.226683
0.226684
0.240421
0.240421
0.240421
0.240421
0.240421
0.240421
0.240421
0.240421
0.240421
0.240421
0.240421
0.240421
0.240421
0.240421
0.240421
0.240421
0.240421
0.240421
0.240421
0.240422
0.254159
0.254159
0.254159
0.254159
0.254159
0.254159
0.254159
0.254159
0.254159
0.254159
0.254159
0.25416
0.25416
0.25416
0.25416
0.25416
0.25416
0.25416
0.25416
0.254161
0.267898
0.267897
0.267897
0.267897
0.267897
0.267897
0.267897
0.267897
0.267898
0.267898
0.267898
0.267898
0.267898
0.267898
0.267898
0.267898
0.267898
0.267898
0.267898
0.267899
0.281636
0.281635
0.281635
0.281635
0.281635
0.281635
0.281636
0.281636
0.281636
0.281636
0.281636
0.281636
0.281636
0.281637
0.281637
0.281637
0.281637
0.281637
0.281637
0.281637
0.295374
0.295373
0.295373
0.295373
0.295373
0.295374
0.295374
0.295374
0.295374
0.295374
0.295374
0.295375
0.295375
0.295375
0.295375
0.295375
0.295375
0.295375
0.295375
0.295375
0.309112
0.309111
0.309111
0.309112
0.309112
0.309112
0.309112
0.309112
0.309112
0.309113
0.309113
0.309113
0.309113
0.309113
0.309113
0.309113
0.309113
0.309113
0.309113
0.309114
0.32285
0.32285
0.32285
0.32285
0.32285
0.32285
0.32285
0.32285
0.322851
0.322851
0.322851
0.322851
0.322851
0.322851
0.322852
0.322852
0.322852
0.322852
0.322852
0.322852
0.336588
0.336588
0.336588
0.336588
0.336588
0.336588
0.336589
0.336589
0.336589
0.336589
0.336589
0.336589
0.33659
0.33659
0.33659
0.33659
0.33659
0.33659
0.33659
0.33659
0.350326
0.350327
0.350327
0.350327
0.350327
0.350327
0.350327
0.350327
0.350327
0.350327
0.350328
0.350328
0.350328
0.350328
0.350328
0.350328
0.350328
0.350328
0.350328
0.350328
0.364065
0.364065
0.364065
0.364065
0.364065
0.364065
0.364065
0.364066
0.364066
0.364066
0.364066
0.364066
0.364066
0.364066
0.364066
0.364066
0.364066
0.364066
0.364066
0.364066
0.377803
0.377804
0.377804
0.377804
0.377804
0.377804
0.377804
0.377804
0.377804
0.377804
0.377804
0.377804
0.377804
0.377804
0.377804
0.377804
0.377804
0.377804
0.377804
0.377804
0.391542
0.391542
0.391542
0.391542
0.391542
0.391542
0.391542
0.391542
0.391542
0.391542
0.391542
0.391542
0.391542
0.391542
0.391542
0.391543
0.391543
0.391543
0.391543
0.391543
0.405281
0.405281
0.405281
0.405281
0.405281
0.405281
0.405281
0.405281
0.405281
0.405281
0.405281
0.405281
0.405281
0.405281
0.405281
0.405281
0.405281
0.405281
0.405281
0.405281
0.419019
0.41902
0.41902
0.419019
0.419019
0.419019
0.419019
0.419019
0.419019
0.419019
0.419019
0.419019
0.419019
0.419019
0.419019
0.419019
0.419019
0.419019
0.419019
0.41902
0.432758
0.432758
0.432758
0.432758
0.432758
0.432758
0.432758
0.432757
0.432757
0.432757
0.432757
0.432757
0.432757
0.432758
0.432758
0.432758
0.432758
0.432758
0.432758
0.432758
0.446496
0.446496
0.446496
0.446496
0.446496
0.446496
0.446496
0.446496
0.446496
0.446496
0.446496
0.446496
0.446496
0.446496
0.446496
0.446496
0.446496
0.446496
0.446496
0.446496
0.460235
0.460234
0.460234
0.460234
0.460234
0.460234
0.460234
0.460234
0.460234
0.460234
0.460234
0.460234
0.460234
0.460234
0.460234
0.460234
0.460234
0.460234
0.460234
0.460235
0.473973
0.473972
0.473972
0.473972
0.473972
0.473972
0.473972
0.473972
0.473972
0.473973
0.473973
0.473973
0.473973
0.473973
0.473973
0.473973
0.473973
0.473972
0.473972
0.473973
0.487711
0.48771
0.48771
0.48771
0.48771
0.48771
0.487711
0.487711
0.487711
0.487711
0.487711
0.487711
0.487711
0.487711
0.487711
0.487711
0.487711
0.487711
0.48771
0.487711
0.501449
0.501448
0.501448
0.501449
0.501449
0.501449
0.501449
0.501449
0.501449
0.501449
0.501449
0.501449
0.501449
0.501449
0.501449
0.501449
0.501449
0.501449
0.501449
0.501449
0.515187
0.515187
0.515187
0.515187
0.515187
0.515187
0.515187
0.515187
0.515187
0.515187
0.515187
0.515187
0.515187
0.515187
0.515187
0.515187
0.515187
0.515187
0.515187
0.515187
0.528925
0.528925
0.528925
0.528925
0.528925
0.528925
0.528926
0.528926
0.528926
0.528926
0.528926
0.528926
0.528925
0.528925
0.528925
0.528925
0.528925
0.528925
0.528925
0.528925
0.542663
0.542663
0.542664
0.542664
0.542664
0.542664
0.542664
0.542664
0.542664
0.542664
0.542664
0.542664
0.542664
0.542663
0.542663
0.542663
0.542663
0.542663
0.542663
0.542663
0.556402
0.556402
0.556402
0.556402
0.556402
0.556402
0.556402
0.556402
0.556402
0.556402
0.556402
0.556402
0.556402
0.556402
0.556402
0.556402
0.556402
0.556402
0.556402
0.556402
0.57014
0.57014
0.57014
0.57014
0.57014
0.57014
0.57014
0.57014
0.57014
0.57014
0.57014
0.57014
0.57014
0.57014
0.57014
0.57014
0.57014
0.57014
0.57014
0.57014
0.583879
0.583879
0.583879
0.583879
0.583879
0.583878
0.583878
0.583878
0.583878
0.583878
0.583878
0.583878
0.583878
0.583878
0.583878
0.583878
0.583878
0.583878
0.583878
0.583879
0.597617
0.597617
0.597617
0.597617
0.597617
0.597617
0.597616
0.597616
0.597616
0.597616
0.597616
0.597616
0.597616
0.597617
0.597617
0.597617
0.597617
0.597617
0.597617
0.597617
0.611355
0.611355
0.611355
0.611355
0.611355
0.611355
0.611355
0.611355
0.611354
0.611354
0.611355
0.611355
0.611355
0.611355
0.611355
0.611355
0.611355
0.611355
0.611355
0.611356
0.625093
0.625093
0.625093
0.625093
0.625093
0.625093
0.625093
0.625093
0.625093
0.625093
0.625093
0.625093
0.625093
0.625093
0.625093
0.625093
0.625093
0.625093
0.625093
0.625094
0.638831
0.638831
0.638831
0.638831
0.638831
0.638831
0.638831
0.638831
0.638831
0.638831
0.638831
0.638831
0.638831
0.638831
0.638831
0.638831
0.638831
0.638831
0.638831
0.638832
0.65257
0.65257
0.65257
0.65257
0.652569
0.652569
0.652569
0.652569
0.652569
0.652569
0.652569
0.652569
0.652569
0.65257
0.65257
0.65257
0.65257
0.65257
0.65257
0.65257
0.666308
0.666308
0.666308
0.666308
0.666308
0.666308
0.666308
0.666308
0.666308
0.666308
0.666308
0.666308
0.666308
0.666308
0.666308
0.666308
0.666308
0.666308
0.666308
0.666308
0.680046
0.680046
0.680046
0.680046
0.680046
0.680046
0.680046
0.680046
0.680046
0.680046
0.680046
0.680046
0.680046
0.680046
0.680046
0.680046
0.680046
0.680046
0.680046
0.680047
0.693785
0.693785
0.693785
0.693785
0.693785
0.693785
0.693785
0.693785
0.693785
0.693785
0.693785
0.693785
0.693785
0.693785
0.693785
0.693785
0.693785
0.693785
0.693785
0.693785
0.707523
0.707523
0.707523
0.707523
0.707523
0.707523
0.707523
0.707523
0.707523
0.707523
0.707523
0.707523
0.707523
0.707523
0.707523
0.707523
0.707523
0.707523
0.707523
0.707524
0.721261
0.721262
0.721262
0.721262
0.721262
0.721262
0.721262
0.721262
0.721261
0.721261
0.721261
0.721262
0.721262
0.721262
0.721262
0.721262
0.721262
0.721262
0.721262
0.721262
0.735
0.735
0.735
0.735
0.735
0.735
0.735
0.735
0.735
0.735
0.735
0.735
0.735
0.735
0.735
0.735
0.735
0.735
0.735
0.735001
0.748738
0.748738
0.748738
0.748738
0.748738
0.748738
0.748738
0.748738
0.748738
0.748738
0.748738
0.748738
0.748738
0.748738
0.748739
0.748739
0.748739
0.748739
0.748739
0.748739
0.762477
0.762477
0.762477
0.762476
0.762476
0.762476
0.762476
0.762476
0.762476
0.762476
0.762476
0.762477
0.762477
0.762477
0.762477
0.762477
0.762477
0.762477
0.762477
0.762477
0.776215
0.776215
0.776215
0.776215
0.776215
0.776215
0.776215
0.776215
0.776215
0.776215
0.776215
0.776215
0.776215
0.776215
0.776215
0.776215
0.776215
0.776215
0.776215
0.776215
0.789954
0.789953
0.789953
0.789953
0.789953
0.789953
0.789953
0.789953
0.789953
0.789953
0.789953
0.789953
0.789953
0.789953
0.789953
0.789953
0.789953
0.789953
0.789953
0.789953
0.803692
0.803691
0.803691
0.803691
0.803691
0.803691
0.803691
0.803691
0.803692
0.803692
0.803692
0.803692
0.803692
0.803692
0.803692
0.803692
0.803692
0.803692
0.803691
0.803692
0.817431
0.81743
0.81743
0.81743
0.81743
0.81743
0.81743
0.81743
0.81743
0.81743
0.81743
0.81743
0.81743
0.81743
0.81743
0.81743
0.81743
0.81743
0.81743
0.81743
0.831169
0.831168
0.831168
0.831168
0.831168
0.831168
0.831168
0.831168
0.831168
0.831168
0.831169
0.831168
0.831168
0.831168
0.831168
0.831168
0.831168
0.831168
0.831168
0.831168
0.844907
0.844906
0.844906
0.844906
0.844906
0.844906
0.844906
0.844907
0.844907
0.844907
0.844907
0.844907
0.844907
0.844907
0.844906
0.844906
0.844906
0.844906
0.844906
0.844906
0.858645
0.858644
0.858644
0.858644
0.858644
0.858645
0.858645
0.858645
0.858645
0.858645
0.858645
0.858645
0.858645
0.858645
0.858645
0.858645
0.858644
0.858644
0.858644
0.858644
0.872383
0.872382
0.872382
0.872382
0.872383
0.872383
0.872383
0.872383
0.872383
0.872383
0.872383
0.872383
0.872383
0.872383
0.872383
0.872383
0.872383
0.872383
0.872383
0.872383
0.886121
0.88612
0.88612
0.886121
0.886121
0.886121
0.886121
0.886121
0.886121
0.886122
0.886122
0.886122
0.886121
0.886121
0.886121
0.886121
0.886121
0.886121
0.886121
0.886121
0.899859
0.899859
0.899859
0.899859
0.899859
0.899859
0.899859
0.899859
0.89986
0.89986
0.89986
0.89986
0.89986
0.89986
0.89986
0.89986
0.89986
0.89986
0.89986
0.89986
0.913597
0.913597
0.913597
0.913597
0.913597
0.913597
0.913598
0.913598
0.913598
0.913598
0.913598
0.913598
0.913598
0.913598
0.913598
0.913598
0.913598
0.913598
0.913598
0.913598
0.927335
0.927335
0.927335
0.927336
0.927336
0.927336
0.927336
0.927336
0.927336
0.927336
0.927336
0.927336
0.927336
0.927336
0.927336
0.927336
0.927336
0.927336
0.927336
0.927337
0.941074
0.941074
0.941074
0.941074
0.941074
0.941074
0.941074
0.941074
0.941074
0.941074
0.941074
0.941074
0.941074
0.941074
0.941074
0.941075
0.941075
0.941075
0.941075
0.941075
0.954812
0.954812
0.954812
0.954812
0.954812
0.954812
0.954812
0.954812
0.954812
0.954812
0.954812
0.954812
0.954812
0.954813
0.954813
0.954813
0.954813
0.954813
0.954813
0.954813
0.968551
0.968551
0.968551
0.968551
0.968551
0.968551
0.968551
0.968551
0.968551
0.968551
0.968551
0.968551
0.968551
0.968551
0.968551
0.968551
0.968551
0.968552
0.968552
0.968552
0.982289
0.982289
0.982289
0.982289
0.982289
0.982289
0.982289
0.982289
0.982289
0.982289
0.982289
0.982289
0.982289
0.982289
0.982289
0.98229
0.98229
0.98229
0.98229
0.98229
0.996027
0.996028
0.996028
0.996028
0.996027
0.996027
0.996027
0.996027
0.996027
0.996027
0.996027
0.996027
0.996028
0.996028
0.996028
0.996028
0.996028
0.996028
0.996028
0.996029
1.00977
1.00977
1.00977
1.00977
1.00977
1.00977
1.00977
1.00977
1.00977
1.00977
1.00977
1.00977
1.00977
1.00977
1.00977
1.00977
1.00977
1.00977
1.00977
1.00977
1.0235
1.0235
1.0235
1.0235
1.0235
1.0235
1.0235
1.0235
1.0235
1.0235
1.0235
1.0235
1.0235
1.0235
1.0235
1.0235
1.0235
1.0235
1.0235
1.02351
1.03724
1.03724
1.03724
1.03724
1.03724
1.03724
1.03724
1.03724
1.03724
1.03724
1.03724
1.03724
1.03724
1.03724
1.03724
1.03724
1.03724
1.03724
1.03724
1.03724
1.05098
1.05098
1.05098
1.05098
1.05098
1.05098
1.05098
1.05098
1.05098
1.05098
1.05098
1.05098
1.05098
1.05098
1.05098
1.05098
1.05098
1.05098
1.05098
1.05098
1.06472
1.06472
1.06472
1.06472
1.06472
1.06472
1.06472
1.06472
1.06472
1.06472
1.06472
1.06472
1.06472
1.06472
1.06472
1.06472
1.06472
1.06472
1.06472
1.06472
1.07846
1.07846
1.07846
1.07846
1.07846
1.07846
1.07846
1.07846
1.07846
1.07846
1.07846
1.07846
1.07846
1.07846
1.07846
1.07846
1.07846
1.07846
1.07846
1.07846
1.0922
1.0922
1.0922
1.0922
1.0922
1.0922
1.0922
1.0922
1.0922
1.0922
1.0922
1.0922
1.0922
1.0922
1.0922
1.0922
1.0922
1.0922
1.0922
1.0922
1.10594
1.10593
1.10593
1.10593
1.10593
1.10593
1.10593
1.10593
1.10593
1.10593
1.10593
1.10593
1.10593
1.10593
1.10593
1.10593
1.10593
1.10593
1.10593
1.10594
1.11967
1.11967
1.11967
1.11967
1.11967
1.11967
1.11967
1.11967
1.11967
1.11967
1.11967
1.11967
1.11967
1.11967
1.11967
1.11967
1.11967
1.11967
1.11967
1.11967
1.13341
1.13341
1.13341
1.13341
1.13341
1.13341
1.13341
1.13341
1.13341
1.13341
1.13341
1.13341
1.13341
1.13341
1.13341
1.13341
1.13341
1.13341
1.13341
1.13341
1.14715
1.14715
1.14715
1.14715
1.14715
1.14715
1.14715
1.14715
1.14715
1.14715
1.14715
1.14715
1.14715
1.14715
1.14715
1.14715
1.14715
1.14715
1.14715
1.14715
1.16089
1.16089
1.16089
1.16089
1.16089
1.16089
1.16089
1.16089
1.16089
1.16089
1.16089
1.16089
1.16089
1.16089
1.16089
1.16089
1.16089
1.16089
1.16089
1.16089
1.17463
1.17463
1.17463
1.17463
1.17463
1.17463
1.17463
1.17463
1.17463
1.17463
1.17463
1.17463
1.17463
1.17463
1.17463
1.17463
1.17463
1.17463
1.17463
1.17463
1.18836
1.18836
1.18836
1.18836
1.18836
1.18836
1.18837
1.18837
1.18837
1.18837
1.18836
1.18836
1.18836
1.18836
1.18836
1.18836
1.18836
1.18836
1.18836
1.18836
1.2021
1.2021
1.2021
1.2021
1.2021
1.2021
1.2021
1.2021
1.2021
1.2021
1.2021
1.2021
1.2021
1.2021
1.2021
1.2021
1.2021
1.2021
1.2021
1.2021
1.21584
1.21584
1.21584
1.21584
1.21584
1.21584
1.21584
1.21584
1.21584
1.21584
1.21584
1.21584
1.21584
1.21584
1.21584
1.21584
1.21584
1.21584
1.21584
1.21584
1.22958
1.22958
1.22958
1.22958
1.22958
1.22958
1.22958
1.22958
1.22958
1.22958
1.22958
1.22958
1.22958
1.22958
1.22958
1.22958
1.22958
1.22958
1.22958
1.22958
1.24332
1.24332
1.24332
1.24332
1.24332
1.24332
1.24332
1.24332
1.24332
1.24332
1.24332
1.24332
1.24332
1.24332
1.24332
1.24332
1.24332
1.24332
1.24332
1.24332
1.25706
1.25706
1.25706
1.25706
1.25706
1.25706
1.25706
1.25706
1.25706
1.25706
1.25706
1.25706
1.25706
1.25706
1.25706
1.25706
1.25706
1.25706
1.25706
1.25706
1.2708
1.2708
1.2708
1.2708
1.2708
1.2708
1.2708
1.2708
1.2708
1.2708
1.2708
1.2708
1.2708
1.2708
1.2708
1.2708
1.2708
1.2708
1.2708
1.2708
1.28453
1.28453
1.28453
1.28453
1.28453
1.28453
1.28453
1.28453
1.28453
1.28453
1.28453
1.28453
1.28453
1.28453
1.28453
1.28453
1.28453
1.28453
1.28453
1.28453
1.29827
1.29827
1.29827
1.29827
1.29827
1.29827
1.29827
1.29827
1.29827
1.29827
1.29827
1.29827
1.29827
1.29827
1.29827
1.29827
1.29827
1.29827
1.29827
1.29827
1.31201
1.31201
1.31201
1.31201
1.31201
1.31201
1.31201
1.31201
1.31201
1.31201
1.31201
1.31201
1.31201
1.31201
1.31201
1.31201
1.31201
1.31201
1.31201
1.31201
1.32575
1.32575
1.32575
1.32575
1.32575
1.32575
1.32575
1.32575
1.32575
1.32575
1.32575
1.32575
1.32575
1.32575
1.32575
1.32575
1.32575
1.32575
1.32575
1.32575
1.33949
1.33949
1.33949
1.33949
1.33949
1.33949
1.33949
1.33949
1.33949
1.33949
1.33949
1.33949
1.33949
1.33949
1.33949
1.33949
1.33949
1.33949
1.33949
1.33949
1.35323
1.35323
1.35323
1.35323
1.35323
1.35323
1.35323
1.35323
1.35323
1.35323
1.35323
1.35323
1.35323
1.35323
1.35323
1.35323
1.35323
1.35323
1.35323
1.35323
1.36696
1.36696
1.36696
1.36696
1.36696
1.36696
1.36696
1.36696
1.36696
1.36696
1.36697
1.36697
1.36697
1.36697
1.36697
1.36697
1.36697
1.36697
1.36697
1.36697
1.3807
1.3807
1.3807
1.3807
1.3807
1.3807
1.3807
1.3807
1.3807
1.3807
1.3807
1.3807
1.3807
1.3807
1.3807
1.38071
1.38071
1.38071
1.38071
1.38071
1.39444
1.39444
1.39444
1.39444
1.39444
1.39444
1.39444
1.39444
1.39444
1.39444
1.39444
1.39444
1.39444
1.39444
1.39444
1.39444
1.39444
1.39444
1.39444
1.39444
1.40818
1.40818
1.40818
1.40818
1.40818
1.40818
1.40818
1.40818
1.40818
1.40818
1.40818
1.40818
1.40818
1.40818
1.40818
1.40818
1.40818
1.40818
1.40818
1.40818
1.42192
1.42192
1.42192
1.42192
1.42192
1.42192
1.42192
1.42192
1.42192
1.42192
1.42192
1.42192
1.42192
1.42192
1.42192
1.42192
1.42192
1.42192
1.42192
1.42192
1.43565
1.43565
1.43565
1.43565
1.43565
1.43566
1.43566
1.43566
1.43566
1.43566
1.43566
1.43566
1.43566
1.43566
1.43566
1.43566
1.43566
1.43566
1.43566
1.43566
1.44939
1.44939
1.44939
1.44939
1.44939
1.44939
1.44939
1.44939
1.4494
1.4494
1.4494
1.4494
1.4494
1.4494
1.4494
1.4494
1.4494
1.4494
1.4494
1.4494
1.46313
1.46313
1.46313
1.46313
1.46313
1.46313
1.46313
1.46313
1.46313
1.46313
1.46314
1.46314
1.46314
1.46314
1.46314
1.46314
1.46314
1.46314
1.46314
1.46314
1.47687
1.47687
1.47687
1.47687
1.47687
1.47687
1.47687
1.47687
1.47687
1.47687
1.47687
1.47688
1.47688
1.47688
1.47688
1.47688
1.47688
1.47688
1.47688
1.47688
1.4906
1.4906
1.4906
1.4906
1.49061
1.49061
1.49061
1.49061
1.49061
1.49061
1.49061
1.49061
1.49062
1.49062
1.49062
1.49062
1.49062
1.49062
1.49062
1.49062
1.50434
1.50434
1.50434
1.50434
1.50434
1.50434
1.50435
1.50435
1.50435
1.50435
1.50435
1.50435
1.50435
1.50436
1.50436
1.50436
1.50436
1.50436
1.50436
1.50436
1.51808
1.51808
1.51808
1.51808
1.51808
1.51808
1.51808
1.51808
1.51809
1.51809
1.51809
1.51809
1.51809
1.5181
1.5181
1.5181
1.5181
1.5181
1.5181
1.5181
1.53181
1.53181
1.53181
1.53182
1.53182
1.53182
1.53182
1.53182
1.53182
1.53183
1.53183
1.53183
1.53183
1.53184
1.53184
1.53184
1.53184
1.53184
1.53184
1.53184
1.54555
1.54555
1.54555
1.54555
1.54555
1.54556
1.54556
1.54556
1.54556
1.54557
1.54557
1.54557
1.54557
1.54558
1.54558
1.54558
1.54558
1.54558
1.54558
1.54558
1.55929
1.55929
1.55929
1.55929
1.55929
1.55929
1.55929
1.5593
1.5593
1.5593
1.55931
1.55931
1.55931
1.55932
1.55932
1.55932
1.55932
1.55932
1.55932
1.55932
1.57302
1.57302
1.57302
1.57302
1.57302
1.57303
1.57303
1.57303
1.57304
1.57304
1.57305
1.57305
1.57305
1.57306
1.57306
1.57306
1.57306
1.57306
1.57307
1.57307
1.58675
1.58675
1.58676
1.58676
1.58676
1.58676
1.58677
1.58677
1.58678
1.58678
1.58678
1.58679
1.58679
1.5868
1.5868
1.5868
1.58681
1.58681
1.58681
1.58681
1.60049
1.60049
1.60049
1.60049
1.60049
1.6005
1.6005
1.60051
1.60051
1.60052
1.60052
1.60053
1.60053
1.60054
1.60054
1.60055
1.60055
1.60055
1.60055
1.60055
1.61422
1.61422
1.61422
1.61423
1.61423
1.61423
1.61424
1.61424
1.61425
1.61426
1.61426
1.61427
1.61427
1.61428
1.61428
1.61429
1.61429
1.61429
1.6143
1.6143
1.62795
1.62795
1.62796
1.62796
1.62796
1.62797
1.62797
1.62798
1.62799
1.62799
1.628
1.62801
1.62801
1.62802
1.62803
1.62803
1.62804
1.62804
1.62804
1.62804
1.64168
1.64168
1.64169
1.64169
1.6417
1.6417
1.64171
1.64172
1.64172
1.64173
1.64174
1.64175
1.64176
1.64176
1.64177
1.64178
1.64178
1.64178
1.64179
1.64179
1.65541
1.65541
1.65542
1.65542
1.65543
1.65543
1.65544
1.65545
1.65546
1.65547
1.65548
1.65549
1.6555
1.65551
1.65551
1.65552
1.65553
1.65553
1.65553
1.65554
1.66914
1.66914
1.66915
1.66915
1.66916
1.66917
1.66917
1.66918
1.6692
1.66921
1.66922
1.66923
1.66924
1.66925
1.66926
1.66927
1.66927
1.66928
1.66928
1.66929
1.68287
1.68287
1.68287
1.68288
1.68289
1.6829
1.68291
1.68292
1.68293
1.68294
1.68296
1.68297
1.68298
1.683
1.68301
1.68302
1.68302
1.68303
1.68303
1.68304
1.69659
1.69659
1.6966
1.6966
1.69661
1.69662
1.69664
1.69665
1.69667
1.69668
1.6967
1.69671
1.69673
1.69674
1.69675
1.69677
1.69677
1.69678
1.69679
1.69679
1.71031
1.71031
1.71032
1.71033
1.71034
1.71035
1.71037
1.71038
1.7104
1.71042
1.71044
1.71046
1.71047
1.71049
1.7105
1.71052
1.71053
1.71054
1.71054
1.71054
1.72403
1.72403
1.72404
1.72405
1.72406
1.72408
1.72409
1.72411
1.72413
1.72416
1.72418
1.7242
1.72422
1.72424
1.72426
1.72427
1.72428
1.72429
1.7243
1.7243
1.73774
1.73775
1.73776
1.73777
1.73778
1.7378
1.73782
1.73784
1.73787
1.73789
1.73792
1.73794
1.73797
1.73799
1.73801
1.73803
1.73804
1.73805
1.73806
1.73807
1.75146
1.75146
1.75147
1.75148
1.7515
1.75152
1.75154
1.75157
1.7516
1.75163
1.75166
1.75169
1.75172
1.75174
1.75177
1.75179
1.7518
1.75182
1.75183
1.75183
1.76516
1.76517
1.76518
1.76519
1.76521
1.76524
1.76527
1.7653
1.76533
1.76536
1.7654
1.76543
1.76547
1.7655
1.76553
1.76555
1.76557
1.76559
1.7656
1.7656
1.77886
1.77887
1.77888
1.7789
1.77892
1.77895
1.77899
1.77902
1.77906
1.7791
1.77914
1.77918
1.77922
1.77926
1.77929
1.77932
1.77934
1.77936
1.77937
1.77938
1.79256
1.79257
1.79258
1.7926
1.79263
1.79266
1.7927
1.79274
1.79279
1.79284
1.79288
1.79293
1.79298
1.79302
1.79306
1.79309
1.79312
1.79314
1.79315
1.79316
1.80625
1.80625
1.80627
1.8063
1.80633
1.80637
1.80641
1.80646
1.80651
1.80657
1.80663
1.80668
1.80673
1.80678
1.80683
1.80687
1.8069
1.80692
1.80694
1.80695
1.81992
1.81993
1.81995
1.81998
1.82002
1.82007
1.82012
1.82018
1.82024
1.8203
1.82037
1.82043
1.8205
1.82055
1.82061
1.82065
1.82069
1.82072
1.82074
1.82075
1.83359
1.8336
1.83363
1.83366
1.83371
1.83376
1.83382
1.83389
1.83396
1.83404
1.83411
1.83419
1.83426
1.83433
1.83439
1.83444
1.83449
1.83452
1.83455
1.83456
1.84725
1.84726
1.84729
1.84733
1.84738
1.84744
1.84752
1.8476
1.84768
1.84777
1.84786
1.84795
1.84803
1.84811
1.84818
1.84825
1.8483
1.84834
1.84836
1.84838
1.86089
1.86091
1.86094
1.86099
1.86105
1.86112
1.8612
1.8613
1.8614
1.8615
1.8616
1.86171
1.86181
1.8619
1.86198
1.86206
1.86212
1.86217
1.8622
1.86221
1.87452
1.87454
1.87457
1.87463
1.8747
1.87479
1.87488
1.87499
1.87511
1.87523
1.87535
1.87547
1.87559
1.8757
1.8758
1.87588
1.87595
1.87601
1.87605
1.87606
1.88813
1.88815
1.88819
1.88826
1.88834
1.88844
1.88855
1.88868
1.88882
1.88896
1.8891
1.88924
1.88938
1.8895
1.88962
1.88972
1.8898
1.88987
1.88991
1.88993
1.90171
1.90174
1.90179
1.90186
1.90196
1.90208
1.90221
1.90236
1.90252
1.90268
1.90285
1.90302
1.90317
1.90332
1.90346
1.90358
1.90367
1.90375
1.9038
1.90383
1.91527
1.9153
1.91536
1.91545
1.91556
1.9157
1.91586
1.91603
1.91622
1.91641
1.9166
1.9168
1.91698
1.91716
1.91731
1.91745
1.91757
1.91766
1.91771
1.91775
1.9288
1.92883
1.9289
1.92901
1.92914
1.9293
1.92948
1.92969
1.9299
1.93013
1.93036
1.93058
1.9308
1.931
1.93119
1.93135
1.93149
1.93159
1.93166
1.93169
1.94229
1.94233
1.94241
1.94253
1.94269
1.94288
1.94309
1.94333
1.94359
1.94385
1.94412
1.94438
1.94463
1.94487
1.94509
1.94528
1.94543
1.94555
1.94564
1.94568
1.95574
1.95579
1.95589
1.95603
1.95621
1.95643
1.95668
1.95696
1.95726
1.95756
1.95788
1.95819
1.95848
1.95876
1.95901
1.95923
1.95942
1.95956
1.95966
1.95971
1.96915
1.9692
1.96931
1.96948
1.96969
1.96995
1.97024
1.97057
1.97092
1.97128
1.97164
1.972
1.97235
1.97268
1.97297
1.97323
1.97344
1.97361
1.97372
1.97378
1.98249
1.98256
1.98269
1.98288
1.98313
1.98343
1.98378
1.98416
1.98456
1.98498
1.98541
1.98583
1.98624
1.98662
1.98696
1.98727
1.98752
1.98771
1.98784
1.98791
1.99577
1.99585
1.996
1.99623
1.99652
1.99687
1.99727
1.99772
1.99819
1.99869
1.99918
1.99968
2.00015
2.0006
2.001
2.00136
2.00165
2.00188
2.00203
2.00211
2.00897
2.00907
2.00924
2.00951
2.00985
2.01026
2.01073
2.01125
2.01181
2.01238
2.01297
2.01354
2.0141
2.01462
2.01509
2.0155
2.01585
2.01611
2.01629
2.01639
2.02208
2.02219
2.0224
2.02271
2.02311
2.02359
2.02414
2.02475
2.0254
2.02607
2.02675
2.02743
2.02807
2.02868
2.02924
2.02972
2.03012
2.03043
2.03064
2.03076
2.03509
2.03522
2.03546
2.03582
2.03628
2.03685
2.03749
2.0382
2.03896
2.03975
2.04055
2.04134
2.04209
2.0428
2.04345
2.04401
2.04448
2.04485
2.04509
2.04523
2.04797
2.04812
2.0484
2.04882
2.04937
2.05003
2.05078
2.05161
2.0525
2.05342
2.05435
2.05527
2.05616
2.05699
2.05775
2.05841
2.05895
2.05938
2.05967
2.05982
2.06071
2.06088
2.06121
2.0617
2.06234
2.06311
2.06399
2.06497
2.066
2.06708
2.06817
2.06925
2.07028
2.07125
2.07214
2.07291
2.07355
2.07404
2.07438
2.07456
2.07327
2.07348
2.07386
2.07444
2.07518
2.07609
2.07712
2.07825
2.07947
2.08073
2.082
2.08326
2.08447
2.0856
2.08663
2.08754
2.08829
2.08886
2.08926
2.08947
2.08564
2.08588
2.08633
2.08701
2.08788
2.08893
2.09014
2.09147
2.09289
2.09436
2.09585
2.09732
2.09873
2.10006
2.10126
2.10232
2.10319
2.10387
2.10433
2.10458
2.09778
2.09806
2.09858
2.09938
2.1004
2.10163
2.10304
2.1046
2.10625
2.10797
2.10971
2.11143
2.11309
2.11464
2.11605
2.11727
2.1183
2.11908
2.11964
2.11991
2.10963
2.10999
2.11059
2.11152
2.11272
2.11416
2.11581
2.11762
2.11956
2.12157
2.1236
2.12561
2.12754
2.12936
2.13101
2.13244
2.13365
2.13454
2.13521
2.1355
2.12115
2.12162
2.12229
2.1234
2.1248
2.12648
2.12841
2.13053
2.13279
2.13514
2.13751
2.13986
2.14212
2.14424
2.14617
2.14785
2.14927
2.15027
2.1511
2.15137
2.13222
2.13291
2.13364
2.13498
2.13661
2.13858
2.14082
2.1433
2.14594
2.14868
2.15145
2.1542
2.15685
2.15933
2.16158
2.16355
2.16523
2.16632
2.16738
2.16755
2.14277
2.14385
2.14459
2.14621
2.14811
2.1504
2.15302
2.1559
2.15898
2.16219
2.16543
2.16864
2.17173
2.17464
2.17728
2.17957
2.18151
2.18284
2.18415
2.18406
2.1555
2.15446
2.15518
2.15707
2.15926
2.16191
2.16496
2.16832
2.17191
2.17565
2.17944
2.18319
2.18682
2.19022
2.19331
2.196
2.1983
2.19989
2.20157
2.20371
2.16365
2.16456
2.16527
2.16745
2.16996
2.17304
2.17659
2.18051
2.1847
2.18906
2.1935
2.19788
2.20212
2.2061
2.20973
2.21289
2.21561
2.21748
2.21963
2.22003
2.17033
2.17508
2.17442
2.1772
2.18014
2.18372
2.18785
2.19242
2.19732
2.20242
2.20759
2.21272
2.21767
2.22233
2.2266
2.2303
2.23346
2.23544
2.2394
2.23623
2.17776
2.18458
2.1832
2.18655
2.18984
2.19391
2.1987
2.20402
2.20973
2.21569
2.22174
2.22773
2.23352
2.23898
2.24404
2.24844
2.2523
2.25458
2.25961
2.25471
2.26795
2.19557
2.1933
2.19553
2.19893
2.20345
2.20901
2.21522
2.22191
2.22888
2.23594
2.24294
2.2497
2.25609
2.26205
2.26736
2.27232
2.27663
2.28319
2.3575
2.24521
2.20511
2.20065
2.20226
2.20664
2.21191
2.21859
2.22593
2.23379
2.24196
2.25022
2.25836
2.26621
2.27359
2.28037
2.28664
2.29194
2.29802
2.30754
2.35075
2.2117
2.23953
2.20204
2.20489
2.21244
2.21909
2.22734
2.2361
2.24537
2.25495
2.2646
2.27408
2.28317
2.29161
2.29917
2.30587
2.30966
2.31579
2.35895
2.33442
2.20325
2.26114
2.2064
2.20754
2.21758
2.22573
2.23545
2.24579
2.25667
2.26788
2.27915
2.29021
2.30078
2.31055
2.31925
2.32677
2.32996
2.33933
2.40131
2.34651
2.20305
2.24829
2.21381
2.21481
2.22215
2.23204
2.24289
2.25492
2.26765
2.28075
2.29393
2.30685
2.31919
2.33063
2.34103
2.34997
2.35778
2.36911
2.41149
2.3707
2.20725
2.21465
2.24052
2.21606
2.22254
2.23666
2.24919
2.26335
2.27825
2.29357
2.30897
2.32407
2.33846
2.35173
2.36374
2.37239
2.38277
2.42155
2.4051
2.4032
2.1989
2.21102
2.26499
2.22028
2.22131
2.23977
2.25458
2.27107
2.28845
2.30634
2.32434
2.34202
2.35891
2.3745
2.3886
2.39773
2.41348
2.47722
2.43322
2.42787
2.19489
2.20182
2.24907
2.22091
2.22677
2.24215
2.25911
2.27801
2.29816
2.31901
2.34005
2.36079
2.38072
2.3995
2.41563
2.43063
2.44833
2.49632
2.46168
2.46229
2.18879
2.1949
2.20719
2.22967
2.2242
2.24118
2.26153
2.28366
2.30717
2.3315
2.35608
2.38033
2.40372
2.42688
2.44257
2.46136
2.49501
2.49572
2.49847
2.50097
2.17737
2.18261
2.19631
2.24751
2.2198
2.23819
2.26221
2.28801
2.31539
2.34378
2.37248
2.40074
2.42778
2.45394
2.47489
2.49679
2.55933
2.53351
2.53732
2.54185
2.16237
2.16925
2.18107
2.22699
2.21538
2.23503
2.26124
2.29084
2.32267
2.35579
2.38932
2.42241
2.45428
2.48463
2.51184
2.53935
2.59074
2.5745
2.58328
2.58769
2.14364
2.15227
2.16491
2.18364
2.21093
2.22566
2.25643
2.2913
2.32864
2.36741
2.40661
2.44525
2.4825
2.51722
2.54931
2.58873
2.60782
2.62364
2.63529
2.63983
2.12088
2.13117
2.14395
2.16335
2.20746
2.21097
2.24824
2.28936
2.33321
2.37864
2.4245
2.46959
2.51305
2.55305
2.58946
2.65052