/*--------------------------------*- C++ -*----------------------------------*\
| =========                 |                                                 |
| \\      /  F ield         | OpenFOAM: The Open Source CFD Toolbox           |
|  \\    /   O peration     | Version:  5.x                                   |
|   \\  /    A nd           | Web:      www.OpenFOAM.org                      |
|    \\/     M anipulation  |                                                 |
\*---------------------------------------------------------------------------*/
FoamFile
{
    version     2.0;
    format      ascii;
    class       surfaceScalarField;
    location    "0.15";
    object      phi;
}
// * * * * * * * * * * * * * * * * * * * * * * * * * * * * * * * * * * * * * //

dimensions      [0 3 -1 0 0 0 0];

internalField   nonuniform List<scalar> 
15580
(
8.06644e-17
-1.58561e-10
1.05522e-16
-4.08268e-10
1.16536e-16
-5.92362e-10
1.18603e-16
-7.22568e-10
1.12799e-16
-8.101e-10
9.95791e-17
-8.65483e-10
7.99373e-17
-8.9813e-10
5.54591e-17
-9.15809e-10
2.77812e-17
-9.24372e-10
-1.40323e-18
-9.27694e-10
-3.03702e-17
-9.27694e-10
-5.72918e-17
-9.24372e-10
-8.00721e-17
-9.15809e-10
-9.66802e-17
-8.9813e-10
-1.05364e-16
-8.65483e-10
-1.0496e-16
-8.101e-10
-9.52792e-17
-7.22568e-10
-7.71249e-17
-5.92362e-10
-4.82732e-17
-4.08268e-10
-1.58561e-10
7.06116e-17
-1.58561e-10
9.73764e-17
-4.08268e-10
1.08459e-16
-5.92362e-10
1.11414e-16
-7.22568e-10
1.06312e-16
-8.101e-10
9.35939e-17
-8.65483e-10
7.46005e-17
-8.9813e-10
5.08534e-17
-9.15809e-10
2.39428e-17
-9.24372e-10
-4.46784e-18
-9.27694e-10
-3.25752e-17
-9.27694e-10
-5.86274e-17
-9.24372e-10
-8.08497e-17
-9.15809e-10
-9.72836e-17
-8.9813e-10
-1.0596e-16
-8.65483e-10
-1.05664e-16
-8.101e-10
-9.67145e-17
-7.22568e-10
-8.01829e-17
-5.92362e-10
-5.60402e-17
-4.08268e-10
-1.58561e-10
4.3771e-17
-1.58561e-10
6.86135e-17
-4.08268e-10
8.35788e-17
-5.92362e-10
9.06455e-17
-7.22568e-10
8.89309e-17
-8.101e-10
7.92291e-17
-8.65483e-10
6.30833e-17
-8.9813e-10
4.21181e-17
-9.15809e-10
1.79018e-17
-9.24372e-10
-7.9449e-18
-9.27694e-10
-3.37631e-17
-9.27694e-10
-5.80318e-17
-9.24372e-10
-7.9072e-17
-9.15809e-10
-9.4881e-17
-8.9813e-10
-1.03142e-16
-8.65483e-10
-1.02069e-16
-8.101e-10
-9.0609e-17
-7.22568e-10
-6.92508e-17
-5.92362e-10
-3.83152e-17
-4.08268e-10
-1.58561e-10
1.27889e-17
-1.58561e-10
3.43419e-17
-4.08268e-10
5.21472e-17
-5.92362e-10
6.36265e-17
-7.22568e-10
6.64383e-17
-8.101e-10
6.09383e-17
-8.65483e-10
4.8846e-17
-8.9813e-10
3.18653e-17
-9.15809e-10
1.14923e-17
-9.24372e-10
-1.07206e-17
-9.27694e-10
-3.35156e-17
-9.27694e-10
-5.55699e-17
-9.24372e-10
-7.52614e-17
-9.15809e-10
-9.05414e-17
-8.9813e-10
-9.90888e-17
-8.65483e-10
-9.8308e-17
-8.101e-10
-8.54292e-17
-7.22568e-10
-5.90315e-17
-5.92362e-10
-2.37035e-17
-4.08268e-10
-1.58561e-10
-5.21238e-18
-1.58561e-10
6.70933e-18
-4.08268e-10
2.42394e-17
-5.92362e-10
3.8823e-17
-7.22568e-10
4.55323e-17
-8.101e-10
4.37993e-17
-8.65483e-10
3.54602e-17
-8.9813e-10
2.22197e-17
-9.15809e-10
5.594e-18
-9.24372e-10
-1.3115e-17
-9.27694e-10
-3.289e-17
-9.27694e-10
-5.26271e-17
-9.24372e-10
-7.09359e-17
-9.15809e-10
-8.5983e-17
-8.9813e-10
-9.55653e-17
-8.65483e-10
-9.66036e-17
-8.101e-10
-8.55368e-17
-7.22568e-10
-5.93685e-17
-5.92362e-10
-2.48531e-17
-4.08268e-10
-1.58561e-10
-2.25574e-17
-1.58561e-10
-1.11957e-17
-4.08268e-10
5.06084e-18
-5.92362e-10
2.11521e-17
-7.22568e-10
3.02683e-17
-8.101e-10
3.10239e-17
-8.65483e-10
2.50946e-17
-8.9813e-10
1.43907e-17
-9.15809e-10
6.51088e-19
-9.24372e-10
-1.52156e-17
-9.27694e-10
-3.23005e-17
-9.27694e-10
-4.98135e-17
-9.24372e-10
-6.66941e-17
-9.15809e-10
-8.14778e-17
-8.9813e-10
-9.22641e-17
-8.65483e-10
-9.63581e-17
-8.101e-10
-9.00132e-17
-7.22568e-10
-6.90997e-17
-5.92362e-10
-3.47472e-17
-4.08268e-10
-1.58561e-10
-1.91839e-17
-1.58561e-10
-1.24886e-17
-4.08268e-10
-3.10895e-19
-5.92362e-10
1.3365e-17
-7.22568e-10
2.25225e-17
-8.101e-10
2.41994e-17
-8.65483e-10
1.91084e-17
-8.9813e-10
9.63688e-18
-9.15809e-10
-2.38858e-18
-9.24372e-10
-1.60368e-17
-9.27694e-10
-3.07401e-17
-9.27694e-10
-4.59628e-17
-9.24372e-10
-6.10032e-17
-9.15809e-10
-7.48797e-17
-8.9813e-10
-8.63773e-17
-8.65483e-10
-9.3765e-17
-8.101e-10
-9.42968e-17
-7.22568e-10
-8.36713e-17
-5.92362e-10
-5.5892e-17
-4.08268e-10
-1.58561e-10
-8.3361e-18
-1.58561e-10
-3.52152e-18
-4.08268e-10
6.65488e-18
-5.92362e-10
1.54819e-17
-7.22568e-10
2.15205e-17
-8.101e-10
2.22818e-17
-8.65483e-10
1.74227e-17
-8.9813e-10
8.63746e-18
-9.15809e-10
-2.35091e-18
-9.24372e-10
-1.43507e-17
-9.27694e-10
-2.68479e-17
-9.27694e-10
-3.94672e-17
-9.24372e-10
-5.18763e-17
-9.15809e-10
-6.35679e-17
-8.9813e-10
-7.39423e-17
-8.65483e-10
-8.25617e-17
-8.101e-10
-8.85448e-17
-7.22568e-10
-8.79785e-17
-5.92362e-10
-7.24992e-17
-4.08268e-10
-1.58561e-10
-2.00972e-18
-1.58561e-10
5.89798e-18
-4.08268e-10
1.66872e-17
-5.92362e-10
2.25356e-17
-7.22568e-10
2.45432e-17
-8.101e-10
2.31741e-17
-8.65483e-10
1.81005e-17
-8.9813e-10
1.00409e-17
-9.15809e-10
3.3919e-19
-9.24372e-10
-9.91199e-18
-9.27694e-10
-2.00473e-17
-9.27694e-10
-2.96665e-17
-9.24372e-10
-3.85694e-17
-9.15809e-10
-4.64643e-17
-8.9813e-10
-5.30253e-17
-8.65483e-10
-5.9022e-17
-8.101e-10
-6.27022e-17
-7.22568e-10
-6.2479e-17
-5.92362e-10
-5.33687e-17
-4.08268e-10
-1.58561e-10
4.71374e-18
-1.58561e-10
1.51543e-17
-4.08268e-10
2.49907e-17
-5.92362e-10
2.87566e-17
-7.22568e-10
2.7785e-17
-8.101e-10
2.43236e-17
-8.65483e-10
1.89526e-17
-8.9813e-10
1.19774e-17
-9.15809e-10
4.10623e-18
-9.24372e-10
-3.84949e-18
-9.27694e-10
-1.12201e-17
-9.27694e-10
-1.76117e-17
-9.24372e-10
-2.27329e-17
-9.15809e-10
-2.62549e-17
-8.9813e-10
-2.84362e-17
-8.65483e-10
-2.96195e-17
-8.101e-10
-2.63436e-17
-7.22568e-10
-1.88681e-17
-5.92362e-10
-1.03313e-17
-4.08268e-10
-1.58561e-10
1.56247e-17
-1.58561e-10
2.30504e-17
-4.08268e-10
2.90271e-17
-5.92362e-10
3.05303e-17
-7.22568e-10
2.80294e-17
-8.101e-10
2.37241e-17
-8.65483e-10
1.86736e-17
-8.9813e-10
1.31198e-17
-9.15809e-10
7.40761e-18
-9.24372e-10
2.06521e-18
-9.27694e-10
-2.4327e-18
-9.27694e-10
-5.78825e-18
-9.24372e-10
-7.77294e-18
-9.15809e-10
-8.28666e-18
-8.9813e-10
-7.96664e-18
-8.65483e-10
-5.04954e-18
-8.101e-10
2.66159e-18
-7.22568e-10
1.17471e-17
-5.92362e-10
1.95375e-17
-4.08268e-10
-1.58561e-10
1.19186e-17
-1.58561e-10
2.19085e-17
-4.08268e-10
2.54776e-17
-5.92362e-10
2.58716e-17
-7.22568e-10
2.39803e-17
-8.101e-10
2.05687e-17
-8.65483e-10
1.68486e-17
-8.9813e-10
1.30947e-17
-9.15809e-10
9.60576e-18
-9.24372e-10
6.76383e-18
-9.27694e-10
4.8262e-18
-9.27694e-10
3.88663e-18
-9.24372e-10
3.9069e-18
-9.15809e-10
4.34342e-18
-8.9813e-10
5.21309e-18
-8.65483e-10
1.00141e-17
-8.101e-10
1.77612e-17
-7.22568e-10
2.07847e-17
-5.92362e-10
1.66327e-17
-4.08268e-10
-1.58561e-10
9.5949e-18
-1.58561e-10
1.61536e-17
-4.08268e-10
1.70806e-17
-5.92362e-10
1.69767e-17
-7.22568e-10
1.6908e-17
-8.101e-10
1.59194e-17
-8.65483e-10
1.41524e-17
-8.9813e-10
1.23379e-17
-9.15809e-10
1.08888e-17
-9.24372e-10
1.0141e-17
-9.27694e-10
1.02259e-17
-9.27694e-10
1.09511e-17
-9.24372e-10
1.19418e-17
-9.15809e-10
1.19691e-17
-8.9813e-10
1.31096e-17
-8.65483e-10
1.85139e-17
-8.101e-10
2.45019e-17
-7.22568e-10
2.40713e-17
-5.92362e-10
1.69001e-17
-4.08268e-10
-1.58561e-10
8.75098e-18
-1.58561e-10
1.24392e-17
-4.08268e-10
1.13186e-17
-5.92362e-10
1.01668e-17
-7.22568e-10
1.06755e-17
-8.101e-10
1.15135e-17
-8.65483e-10
1.1644e-17
-8.9813e-10
1.1572e-17
-9.15809e-10
1.17845e-17
-9.24372e-10
1.26361e-17
-9.27694e-10
1.4118e-17
-9.27694e-10
1.569e-17
-9.24372e-10
1.64806e-17
-9.15809e-10
1.65759e-17
-8.9813e-10
1.86072e-17
-8.65483e-10
2.32517e-17
-8.101e-10
2.64165e-17
-7.22568e-10
2.50966e-17
-5.92362e-10
1.90111e-17
-4.08268e-10
-1.58561e-10
1.17551e-17
-1.58561e-10
1.23061e-17
-4.08268e-10
8.79378e-18
-5.92362e-10
6.24298e-18
-7.22568e-10
6.08343e-18
-8.101e-10
7.77224e-18
-8.65483e-10
9.70469e-18
-8.9813e-10
1.1379e-17
-9.15809e-10
1.29339e-17
-9.24372e-10
1.48967e-17
-9.27694e-10
1.71604e-17
-9.27694e-10
1.88201e-17
-9.24372e-10
1.89908e-17
-9.15809e-10
1.94543e-17
-8.9813e-10
2.1615e-17
-8.65483e-10
2.39125e-17
-8.101e-10
2.34403e-17
-7.22568e-10
1.8961e-17
-5.92362e-10
1.37532e-17
-4.08268e-10
-1.58561e-10
1.44555e-17
-1.58561e-10
1.03469e-17
-4.08268e-10
5.07181e-18
-5.92362e-10
2.10431e-18
-7.22568e-10
1.8139e-18
-8.101e-10
4.15607e-18
-8.65483e-10
7.71559e-18
-8.9813e-10
1.13661e-17
-9.15809e-10
1.468e-17
-9.24372e-10
1.75324e-17
-9.27694e-10
1.96822e-17
-9.27694e-10
2.06162e-17
-9.24372e-10
2.07903e-17
-9.15809e-10
2.12559e-17
-8.9813e-10
2.20703e-17
-8.65483e-10
2.13394e-17
-8.101e-10
1.69194e-17
-7.22568e-10
8.05535e-18
-5.92362e-10
1.45132e-18
-4.08268e-10
-1.58561e-10
6.99548e-18
-1.58561e-10
8.29177e-19
-4.08268e-10
-3.06276e-18
-5.92362e-10
-3.96155e-18
-7.22568e-10
-2.61706e-18
-8.101e-10
8.26559e-19
-8.65483e-10
5.62474e-18
-8.9813e-10
1.07364e-17
-9.15809e-10
1.55269e-17
-9.24372e-10
1.91932e-17
-9.27694e-10
2.13811e-17
-9.27694e-10
2.24147e-17
-9.24372e-10
2.29191e-17
-9.15809e-10
2.32371e-17
-8.9813e-10
2.25267e-17
-8.65483e-10
1.90291e-17
-8.101e-10
1.04022e-17
-7.22568e-10
-3.83942e-18
-5.92362e-10
-1.40481e-17
-4.08268e-10
-1.58561e-10
-1.12857e-17
-1.58561e-10
-1.37939e-17
-4.08268e-10
-1.27642e-17
-5.92362e-10
-1.00471e-17
-7.22568e-10
-6.45714e-18
-8.101e-10
-1.764e-18
-8.65483e-10
3.83929e-18
-8.9813e-10
9.75853e-18
-9.15809e-10
1.53286e-17
-9.24372e-10
1.97782e-17
-9.27694e-10
2.27407e-17
-9.27694e-10
2.47242e-17
-9.24372e-10
2.6046e-17
-9.15809e-10
2.66032e-17
-8.9813e-10
2.53684e-17
-8.65483e-10
2.07098e-17
-8.101e-10
1.06185e-17
-7.22568e-10
-4.43264e-18
-5.92362e-10
-1.78276e-17
-4.08268e-10
-1.58561e-10
-2.14083e-17
-1.58561e-10
-2.26061e-17
-4.08268e-10
-1.79922e-17
-5.92362e-10
-1.3242e-17
-7.22568e-10
-8.43064e-18
-8.101e-10
-3.12279e-18
-8.65483e-10
2.79042e-18
-8.9813e-10
8.96157e-18
-9.15809e-10
1.49173e-17
-9.24372e-10
2.01343e-17
-9.27694e-10
2.43282e-17
-9.27694e-10
2.76607e-17
-9.24372e-10
3.02157e-17
-9.15809e-10
3.16345e-17
-8.9813e-10
3.11741e-17
-8.65483e-10
2.76648e-17
-8.101e-10
2.01272e-17
-7.22568e-10
1.1136e-17
-5.92362e-10
1.62669e-18
-4.08268e-10
-1.58561e-10
-1.87258e-17
-1.58561e-10
-2.00558e-17
-4.08268e-10
-1.63246e-17
-5.92362e-10
-1.23856e-17
-7.22568e-10
-8.0192e-18
-8.101e-10
-2.95862e-18
-8.65483e-10
2.7766e-18
-8.9813e-10
8.87105e-18
-9.15809e-10
1.49934e-17
-9.24372e-10
2.08503e-17
-9.27694e-10
2.61975e-17
-9.27694e-10
3.08499e-17
-9.24372e-10
3.48107e-17
-9.15809e-10
3.7651e-17
-8.9813e-10
3.87184e-17
-8.65483e-10
3.74794e-17
-8.101e-10
3.45949e-17
-7.22568e-10
3.33452e-17
-5.92362e-10
2.80157e-17
-4.08268e-10
-1.58561e-10
-3.67346e-18
-1.58561e-10
-9.01774e-18
-4.08268e-10
-1.01814e-17
-5.92362e-10
-8.90557e-18
-7.22568e-10
-5.83309e-18
-8.101e-10
-1.45641e-18
-8.65483e-10
3.83892e-18
-8.9813e-10
9.6437e-18
-9.15809e-10
1.5695e-17
-9.24372e-10
2.18252e-17
-9.27694e-10
2.78627e-17
-9.27694e-10
3.35999e-17
-9.24372e-10
3.88472e-17
-9.15809e-10
4.30445e-17
-8.9813e-10
4.54862e-17
-8.65483e-10
4.62293e-17
-8.101e-10
4.76515e-17
-7.22568e-10
5.11019e-17
-5.92362e-10
4.33957e-17
-4.08268e-10
-1.58561e-10
1.04789e-17
-1.58561e-10
-1.56173e-18
-4.08268e-10
-6.02236e-18
-5.92362e-10
-5.71636e-18
-7.22568e-10
-3.04008e-18
-8.101e-10
9.36357e-19
-8.65483e-10
5.70439e-18
-8.9813e-10
1.09723e-17
-9.15809e-10
1.65973e-17
-9.24372e-10
2.25334e-17
-9.27694e-10
2.87203e-17
-9.27694e-10
3.50092e-17
-9.24372e-10
4.10026e-17
-9.15809e-10
4.58936e-17
-8.9813e-10
4.8901e-17
-8.65483e-10
5.0882e-17
-8.101e-10
5.55281e-17
-7.22568e-10
6.14422e-17
-5.92362e-10
5.29265e-17
-4.08268e-10
-1.58561e-10
-6.18999e-18
-1.58561e-10
-8.12724e-18
-4.08268e-10
-6.9336e-18
-5.92362e-10
-3.49523e-18
-7.22568e-10
3.61711e-19
-8.101e-10
4.20468e-18
-8.65483e-10
8.19395e-18
-8.9813e-10
1.25176e-17
-9.15809e-10
1.72534e-17
-9.24372e-10
2.2466e-17
-9.27694e-10
2.81798e-17
-9.27694e-10
3.42572e-17
-9.24372e-10
4.01126e-17
-9.15809e-10
4.46386e-17
-8.9813e-10
4.71475e-17
-8.65483e-10
4.95976e-17
-8.101e-10
5.61331e-17
-7.22568e-10
6.23582e-17
-5.92362e-10
5.20629e-17
-4.08268e-10
-1.58561e-10
-2.4442e-17
-1.58561e-10
-1.34123e-17
-4.08268e-10
-4.34972e-18
-5.92362e-10
2.11358e-18
-7.22568e-10
6.33269e-18
-8.101e-10
9.086e-18
-8.65483e-10
1.14183e-17
-8.9813e-10
1.40521e-17
-9.15809e-10
1.7274e-17
-9.24372e-10
2.11772e-17
-9.27694e-10
2.57693e-17
-9.27694e-10
3.0815e-17
-9.24372e-10
3.55114e-17
-9.15809e-10
3.86361e-17
-8.9813e-10
3.99585e-17
-8.65483e-10
4.26984e-17
-8.101e-10
5.01044e-17
-7.22568e-10
5.5352e-17
-5.92362e-10
4.38725e-17
-4.08268e-10
-1.58561e-10
-1.13758e-17
-1.58561e-10
1.79452e-18
-4.08268e-10
1.07537e-17
-5.92362e-10
1.49511e-17
-7.22568e-10
1.62067e-17
-8.101e-10
1.58052e-17
-8.65483e-10
1.51713e-17
-8.9813e-10
1.52416e-17
-9.15809e-10
1.63186e-17
-9.24372e-10
1.83721e-17
-9.27694e-10
2.12409e-17
-9.27694e-10
2.45059e-17
-9.24372e-10
2.72432e-17
-9.15809e-10
2.84114e-17
-8.9813e-10
2.86866e-17
-8.65483e-10
3.22894e-17
-8.101e-10
4.02165e-17
-7.22568e-10
4.4099e-17
-5.92362e-10
3.28463e-17
-4.08268e-10
-1.58561e-10
2.56434e-17
-1.58561e-10
3.18308e-17
-4.08268e-10
3.50695e-17
-5.92362e-10
3.27235e-17
-7.22568e-10
2.81702e-17
-8.101e-10
2.29614e-17
-8.65483e-10
1.84363e-17
-8.9813e-10
1.54059e-17
-9.15809e-10
1.39704e-17
-9.24372e-10
1.38285e-17
-9.27694e-10
1.45642e-17
-9.27694e-10
1.56175e-17
-9.24372e-10
1.60775e-17
-9.15809e-10
1.53697e-17
-8.9813e-10
1.54607e-17
-8.65483e-10
2.07625e-17
-8.101e-10
2.93182e-17
-7.22568e-10
3.23584e-17
-5.92362e-10
2.31545e-17
-4.08268e-10
-1.58561e-10
4.45937e-17
-1.58561e-10
5.77536e-17
-4.08268e-10
5.69728e-17
-5.92362e-10
4.84233e-17
-7.22568e-10
3.79137e-17
-8.101e-10
2.7861e-17
-8.65483e-10
1.95648e-17
-8.9813e-10
1.36009e-17
-9.15809e-10
9.7653e-18
-9.24372e-10
7.4503e-18
-9.27694e-10
6.02653e-18
-9.27694e-10
4.87271e-18
-9.24372e-10
3.25717e-18
-9.15809e-10
1.13499e-18
-8.9813e-10
1.95465e-18
-8.65483e-10
9.27446e-18
-8.101e-10
1.84273e-17
-7.22568e-10
2.18058e-17
-5.92362e-10
1.6338e-17
-4.08268e-10
-1.58561e-10
5.56269e-17
-1.58561e-10
7.36417e-17
-4.08268e-10
6.91599e-17
-5.92362e-10
5.61232e-17
-7.22568e-10
4.1268e-17
-8.101e-10
2.78397e-17
-8.65483e-10
1.69859e-17
-8.9813e-10
9.01298e-18
-9.15809e-10
3.43109e-18
-9.24372e-10
-5.82315e-19
-9.27694e-10
-3.79254e-18
-9.27694e-10
-6.7629e-18
-9.24372e-10
-1.02574e-17
-9.15809e-10
-1.33491e-17
-8.9813e-10
-1.14411e-17
-8.65483e-10
-2.85031e-18
-8.101e-10
6.21934e-18
-7.22568e-10
1.08934e-17
-5.92362e-10
1.02424e-17
-4.08268e-10
-1.58561e-10
6.86813e-17
-1.58561e-10
7.41245e-17
-4.08268e-10
6.63608e-17
-5.92362e-10
5.138e-17
-7.22568e-10
3.52401e-17
-8.101e-10
2.11537e-17
-8.65483e-10
9.81939e-18
-8.9813e-10
1.34684e-18
-9.15809e-10
-4.8874e-18
-9.24372e-10
-9.8066e-18
-9.27694e-10
-1.40893e-17
-9.27694e-10
-1.8458e-17
-9.24372e-10
-2.36212e-17
-9.15809e-10
-2.72152e-17
-8.9813e-10
-2.46731e-17
-8.65483e-10
-1.62236e-17
-8.101e-10
-9.34189e-18
-7.22568e-10
-3.86668e-18
-5.92362e-10
8.58338e-19
-4.08268e-10
-1.58561e-10
4.28367e-17
-1.58561e-10
4.63757e-17
-4.08268e-10
4.18942e-17
-5.92362e-10
3.13504e-17
-7.22568e-10
1.89445e-17
-8.101e-10
7.78839e-18
-8.65483e-10
-1.54878e-18
-8.9813e-10
-8.79049e-18
-9.15809e-10
-1.4425e-17
-9.24372e-10
-1.93037e-17
-9.27694e-10
-2.42308e-17
-9.27694e-10
-2.99375e-17
-9.24372e-10
-3.60768e-17
-9.15809e-10
-3.87974e-17
-8.9813e-10
-3.48905e-17
-8.65483e-10
-3.02911e-17
-8.101e-10
-2.90405e-17
-7.22568e-10
-2.42113e-17
-5.92362e-10
-1.33453e-17
-4.08268e-10
-1.58561e-10
-6.36506e-18
-1.58561e-10
3.55601e-18
-4.08268e-10
3.74738e-18
-5.92362e-10
9.85648e-19
-7.22568e-10
-4.09357e-18
-8.101e-10
-9.56749e-18
-8.65483e-10
-1.49618e-17
-8.9813e-10
-1.959e-17
-9.15809e-10
-2.35013e-17
-9.24372e-10
-2.75921e-17
-9.27694e-10
-3.22864e-17
-9.27694e-10
-3.81274e-17
-9.24372e-10
-4.35734e-17
-9.15809e-10
-4.44143e-17
-8.9813e-10
-4.33371e-17
-8.65483e-10
-4.65681e-17
-8.101e-10
-5.06427e-17
-7.22568e-10
-4.68125e-17
-5.92362e-10
-2.95294e-17
-4.08268e-10
-1.58561e-10
-1.84905e-17
-1.58561e-10
-2.59031e-17
-4.08268e-10
-2.95337e-17
-5.92362e-10
-2.90586e-17
-7.22568e-10
-2.72217e-17
-8.101e-10
-2.62084e-17
-8.65483e-10
-2.6841e-17
-8.9813e-10
-2.82926e-17
-9.15809e-10
-2.99797e-17
-9.24372e-10
-3.23964e-17
-9.27694e-10
-3.62492e-17
-9.27694e-10
-4.16515e-17
-9.24372e-10
-4.54487e-17
-9.15809e-10
-4.72669e-17
-8.9813e-10
-5.19816e-17
-8.65483e-10
-6.17687e-17
-8.101e-10
-7.05419e-17
-7.22568e-10
-6.87272e-17
-5.92362e-10
-4.6682e-17
-4.08268e-10
-1.58561e-10
-3.62809e-17
-1.58561e-10
-5.20743e-17
-4.08268e-10
-5.8267e-17
-5.92362e-10
-5.45584e-17
-7.22568e-10
-4.59734e-17
-8.101e-10
-3.8085e-17
-8.65483e-10
-3.35714e-17
-8.9813e-10
-3.18494e-17
-9.15809e-10
-3.14868e-17
-9.24372e-10
-3.2631e-17
-9.27694e-10
-3.62201e-17
-9.27694e-10
-4.07094e-17
-9.24372e-10
-4.41468e-17
-9.15809e-10
-4.90198e-17
-8.9813e-10
-5.76718e-17
-8.65483e-10
-7.16929e-17
-8.101e-10
-8.43982e-17
-7.22568e-10
-8.6183e-17
-5.92362e-10
-6.7667e-17
-4.08268e-10
-1.58561e-10
-6.25998e-17
-1.58561e-10
-8.24929e-17
-4.08268e-10
-8.23313e-17
-5.92362e-10
-7.25972e-17
-7.22568e-10
-5.72342e-17
-8.101e-10
-4.30007e-17
-8.65483e-10
-3.30833e-17
-8.9813e-10
-2.80004e-17
-9.15809e-10
-2.67658e-17
-9.24372e-10
-2.81023e-17
-9.27694e-10
-3.11916e-17
-9.27694e-10
-3.44773e-17
-9.24372e-10
-3.86181e-17
-9.15809e-10
-4.55487e-17
-8.9813e-10
-5.63539e-17
-8.65483e-10
-7.17741e-17
-8.101e-10
-8.51917e-17
-7.22568e-10
-8.8641e-17
-5.92362e-10
-6.95295e-17
-4.08268e-10
-1.58561e-10
-8.50428e-17
-1.58561e-10
-1.03934e-16
-4.08268e-10
-9.54441e-17
-5.92362e-10
-7.84504e-17
-7.22568e-10
-5.80944e-17
-8.101e-10
-3.96032e-17
-8.65483e-10
-2.59479e-17
-8.9813e-10
-1.87789e-17
-9.15809e-10
-1.69191e-17
-9.24372e-10
-1.80962e-17
-9.27694e-10
-2.04534e-17
-9.27694e-10
-2.41064e-17
-9.24372e-10
-2.98374e-17
-9.15809e-10
-3.70217e-17
-8.9813e-10
-4.79153e-17
-8.65483e-10
-6.20138e-17
-8.101e-10
-7.4341e-17
-7.22568e-10
-7.83706e-17
-5.92362e-10
-6.26275e-17
-4.08268e-10
-1.58561e-10
-9.13318e-17
-1.58561e-10
-1.04917e-16
-4.08268e-10
-8.97057e-17
-5.92362e-10
-6.78057e-17
-7.22568e-10
-4.59871e-17
-8.101e-10
-2.76391e-17
-8.65483e-10
-1.39843e-17
-8.9813e-10
-6.41065e-18
-9.15809e-10
-3.92129e-18
-9.24372e-10
-4.49784e-18
-9.27694e-10
-7.29065e-18
-9.27694e-10
-1.26732e-17
-9.24372e-10
-1.93602e-17
-9.15809e-10
-2.5786e-17
-8.9813e-10
-3.5117e-17
-8.65483e-10
-4.63574e-17
-8.101e-10
-5.58488e-17
-7.22568e-10
-5.71016e-17
-5.92362e-10
-4.0276e-17
-4.08268e-10
-1.58561e-10
-7.53433e-17
-1.58561e-10
-8.14029e-17
-4.08268e-10
-6.27376e-17
-5.92362e-10
-4.03064e-17
-7.22568e-10
-2.10703e-17
-8.101e-10
-7.23482e-18
-8.65483e-10
2.20834e-18
-8.9813e-10
7.67749e-18
-9.15809e-10
9.23879e-18
-9.24372e-10
7.71613e-18
-9.27694e-10
3.32812e-18
-9.27694e-10
-2.87602e-18
-9.24372e-10
-8.16485e-18
-9.15809e-10
-1.31677e-17
-8.9813e-10
-2.02557e-17
-8.65483e-10
-2.87984e-17
-8.101e-10
-3.59699e-17
-7.22568e-10
-3.81424e-17
-5.92362e-10
-2.8311e-17
-4.08268e-10
-1.58561e-10
-3.85774e-17
-1.58561e-10
-3.50705e-17
-4.08268e-10
-1.69919e-17
-5.92362e-10
1.15796e-18
-7.22568e-10
1.38677e-17
-8.101e-10
2.05627e-17
-8.65483e-10
2.31305e-17
-8.9813e-10
2.30942e-17
-9.15809e-10
2.06201e-17
-9.24372e-10
1.59108e-17
-9.27694e-10
9.97388e-18
-9.27694e-10
5.02843e-18
-9.24372e-10
2.01362e-18
-9.15809e-10
-1.35829e-18
-8.9813e-10
-6.18294e-18
-8.65483e-10
-1.13311e-17
-8.101e-10
-1.59757e-17
-7.22568e-10
-2.03085e-17
-5.92362e-10
-2.15822e-17
-4.08268e-10
-1.58561e-10
1.1671e-17
-1.58561e-10
2.72274e-17
-4.08268e-10
4.09578e-17
-5.92362e-10
5.0403e-17
-7.22568e-10
5.28827e-17
-8.101e-10
5.03476e-17
-8.65483e-10
4.51695e-17
-8.9813e-10
3.8703e-17
-9.15809e-10
3.11992e-17
-9.24372e-10
2.32392e-17
-9.27694e-10
1.65693e-17
-9.27694e-10
1.24616e-17
-9.24372e-10
1.0302e-17
-9.15809e-10
8.38405e-18
-8.9813e-10
5.97051e-18
-8.65483e-10
5.04215e-18
-8.101e-10
4.2099e-18
-7.22568e-10
4.37265e-19
-5.92362e-10
-5.56492e-18
-4.08268e-10
-1.58561e-10
6.83595e-17
-1.58561e-10
9.57431e-17
-4.08268e-10
1.00585e-16
-5.92362e-10
9.70355e-17
-7.22568e-10
8.75434e-17
-8.101e-10
7.56582e-17
-8.65483e-10
6.34124e-17
-8.9813e-10
5.16757e-17
-9.15809e-10
4.06185e-17
-9.24372e-10
3.08438e-17
-9.27694e-10
2.33953e-17
-9.27694e-10
1.88606e-17
-9.24372e-10
1.64396e-17
-9.15809e-10
1.51549e-17
-8.9813e-10
1.51115e-17
-8.65483e-10
1.80811e-17
-8.101e-10
2.13995e-17
-7.22568e-10
2.05999e-17
-5.92362e-10
1.34252e-17
-4.08268e-10
-1.58561e-10
1.32038e-16
-1.58561e-10
1.53332e-16
-4.08268e-10
1.43894e-16
-5.92362e-10
1.27042e-16
-7.22568e-10
1.08318e-16
-8.101e-10
9.02175e-17
-8.65483e-10
7.38062e-17
-8.9813e-10
5.92442e-17
-9.15809e-10
4.65496e-17
-9.24372e-10
3.59721e-17
-9.27694e-10
2.80434e-17
-9.27694e-10
2.28735e-17
-9.24372e-10
1.97951e-17
-9.15809e-10
1.85152e-17
-8.9813e-10
2.01157e-17
-8.65483e-10
2.56858e-17
-8.101e-10
3.24499e-17
-7.22568e-10
3.59871e-17
-5.92362e-10
3.09079e-17
-4.08268e-10
-1.58561e-10
1.34976e-16
-1.58561e-10
1.6116e-16
-4.08268e-10
1.49067e-16
-5.92362e-10
1.29404e-16
-7.22568e-10
1.08979e-16
-8.101e-10
9.03453e-17
-8.65483e-10
7.39782e-17
-8.9813e-10
5.96341e-17
-9.15809e-10
4.73008e-17
-9.24372e-10
3.71348e-17
-9.27694e-10
2.93453e-17
-9.27694e-10
2.38411e-17
-9.24372e-10
2.01797e-17
-9.15809e-10
1.8603e-17
-8.9813e-10
2.06928e-17
-8.65483e-10
2.67947e-17
-8.101e-10
3.49317e-17
-7.22568e-10
4.19886e-17
-5.92362e-10
4.01297e-17
-4.08268e-10
-1.58561e-10
1.05707e-16
-1.58562e-10
1.22905e-16
-4.08268e-10
1.18893e-16
-5.92362e-10
1.0662e-16
-7.22568e-10
9.1614e-17
-8.101e-10
7.73812e-17
-8.65483e-10
6.44435e-17
-8.9813e-10
5.28048e-17
-9.15809e-10
4.26282e-17
-9.24372e-10
3.40957e-17
-9.27694e-10
2.72838e-17
-9.27694e-10
2.20564e-17
-9.24372e-10
1.82117e-17
-9.15809e-10
1.62161e-17
-8.9813e-10
1.7608e-17
-8.65483e-10
2.1978e-17
-8.101e-10
2.83888e-17
-7.22568e-10
3.5896e-17
-5.92362e-10
3.62456e-17
-4.08268e-10
-1.58561e-10
1.53196e-17
-1.58562e-10
5.62187e-17
-4.08268e-10
6.95566e-17
-5.92362e-10
6.96747e-17
-7.22568e-10
6.38003e-17
-8.101e-10
5.60149e-17
-8.65483e-10
4.80331e-17
-8.9813e-10
4.03998e-17
-9.15809e-10
3.349e-17
-9.24372e-10
2.75366e-17
-9.27694e-10
2.25809e-17
-9.27694e-10
1.84811e-17
-9.24372e-10
1.50977e-17
-9.15809e-10
1.28676e-17
-8.9813e-10
1.28385e-17
-8.65483e-10
1.3965e-17
-8.101e-10
1.59562e-17
-7.22568e-10
2.00697e-17
-5.92362e-10
2.0484e-17
-4.08268e-10
-1.58561e-10
9.43336e-18
-1.58562e-10
2.20139e-17
-4.08268e-10
3.18523e-17
-5.92362e-10
3.50655e-17
-7.22568e-10
3.42866e-17
-8.101e-10
3.16713e-17
-8.65483e-10
2.83819e-17
-8.9813e-10
2.49666e-17
-9.15809e-10
2.17871e-17
-9.24372e-10
1.90232e-17
-9.27694e-10
1.66537e-17
-9.27694e-10
1.44972e-17
-9.24372e-10
1.23554e-17
-9.15809e-10
1.04929e-17
-8.9813e-10
9.26803e-18
-8.65483e-10
7.20961e-18
-8.101e-10
4.10094e-18
-7.22568e-10
2.53675e-18
-5.92362e-10
5.36433e-19
-4.08268e-10
-1.58561e-10
5.24646e-18
-1.58562e-10
1.41174e-18
-4.08268e-10
2.86811e-18
-5.92362e-10
5.03393e-18
-7.22568e-10
6.64753e-18
-8.101e-10
7.76875e-18
-8.65483e-10
8.51562e-18
-8.9813e-10
9.11085e-18
-9.15809e-10
9.75265e-18
-9.24372e-10
1.04728e-17
-9.27694e-10
1.11491e-17
-9.27694e-10
1.15457e-17
-9.24372e-10
1.14154e-17
-9.15809e-10
1.08633e-17
-8.9813e-10
9.65732e-18
-8.65483e-10
6.08742e-18
-8.101e-10
-3.73847e-19
-7.22568e-10
-6.80957e-18
-5.92362e-10
-1.16921e-17
-4.08268e-10
-1.58561e-10
-1.30707e-17
-1.58562e-10
-2.17201e-17
-4.08268e-10
-2.35843e-17
-5.92362e-10
-2.15059e-17
-7.22568e-10
-1.784e-17
-8.101e-10
-1.35776e-17
-8.65483e-10
-9.23055e-18
-8.9813e-10
-4.89772e-18
-9.15809e-10
-5.88555e-19
-9.24372e-10
3.57343e-18
-9.27694e-10
7.38823e-18
-9.27694e-10
1.06183e-17
-9.24372e-10
1.30755e-17
-9.15809e-10
1.48293e-17
-8.9813e-10
1.53003e-17
-8.65483e-10
1.26956e-17
-8.101e-10
6.01729e-18
-7.22568e-10
-2.3358e-18
-5.92362e-10
-9.36892e-18
-4.08268e-10
-1.58561e-10
-3.16967e-17
-1.58561e-10
-4.4833e-17
-4.08268e-10
-4.71995e-17
-5.92362e-10
-4.38968e-17
-7.22568e-10
-3.79407e-17
-8.101e-10
-3.0749e-17
-8.65483e-10
-2.31154e-17
-8.9813e-10
-1.54271e-17
-9.15809e-10
-7.89604e-18
-9.24372e-10
-7.33127e-19
-9.27694e-10
5.88093e-18
-9.27694e-10
1.1812e-17
-9.24372e-10
1.70581e-17
-9.15809e-10
2.17745e-17
-8.9813e-10
2.52372e-17
-8.65483e-10
2.57148e-17
-8.101e-10
2.17036e-17
-7.22568e-10
1.43919e-17
-5.92362e-10
5.93833e-18
-4.08268e-10
-1.58561e-10
-4.69622e-17
-1.58561e-10
-6.32463e-17
-4.08268e-10
-6.54992e-17
-5.92362e-10
-6.05586e-17
-7.22568e-10
-5.23376e-17
-8.101e-10
-4.25355e-17
-8.65483e-10
-3.21208e-17
-8.9813e-10
-2.17667e-17
-9.15809e-10
-1.18452e-17
-9.24372e-10
-2.53155e-18
-9.27694e-10
6.14381e-18
-9.27694e-10
1.42504e-17
-9.24372e-10
2.20375e-17
-9.15809e-10
2.97665e-17
-8.9813e-10
3.66555e-17
-8.65483e-10
4.10824e-17
-8.101e-10
4.11053e-17
-7.22568e-10
3.62948e-17
-5.92362e-10
2.62701e-17
-4.08268e-10
-1.58561e-10
-5.62201e-17
-1.58561e-10
-7.46033e-17
-4.08268e-10
-7.62638e-17
-5.92362e-10
-6.99179e-17
-7.22568e-10
-5.99261e-17
-8.101e-10
-4.82687e-17
-8.65483e-10
-3.60666e-17
-8.9813e-10
-2.42061e-17
-9.15809e-10
-1.31024e-17
-9.24372e-10
-2.76758e-18
-9.27694e-10
7.00225e-18
-9.27694e-10
1.65085e-17
-9.24372e-10
2.6216e-17
-9.15809e-10
3.64075e-17
-8.9813e-10
4.6274e-17
-8.65483e-10
5.42535e-17
-8.101e-10
5.81372e-17
-7.22568e-10
5.58081e-17
-5.92362e-10
4.31925e-17
-4.08268e-10
-1.58561e-10
-5.69769e-17
-1.58561e-10
-7.60619e-17
-4.08268e-10
-7.75747e-17
-5.92362e-10
-7.07667e-17
-7.22568e-10
-6.01485e-17
-8.101e-10
-4.80324e-17
-8.65483e-10
-3.56376e-17
-8.9813e-10
-2.38379e-17
-9.15809e-10
-1.29282e-17
-9.24372e-10
-2.71494e-18
-9.27694e-10
7.19524e-18
-9.27694e-10
1.72593e-17
-9.24372e-10
2.80385e-17
-9.15809e-10
3.97342e-17
-8.9813e-10
5.15803e-17
-8.65483e-10
6.20514e-17
-8.101e-10
6.88497e-17
-7.22568e-10
6.83945e-17
-5.92362e-10
5.31073e-17
-4.08268e-10
-1.58561e-10
-4.86102e-17
-1.58561e-10
-6.67304e-17
-4.08268e-10
-6.88443e-17
-5.92362e-10
-6.30748e-17
-7.22568e-10
-5.35871e-17
-8.101e-10
-4.29428e-17
-8.65483e-10
-3.22523e-17
-8.9813e-10
-2.21039e-17
-9.15809e-10
-1.25764e-17
-9.24372e-10
-3.37825e-18
-9.27694e-10
5.89699e-18
-9.27694e-10
1.57136e-17
-9.24372e-10
2.65909e-17
-9.15809e-10
3.86205e-17
-8.9813e-10
5.12097e-17
-8.65483e-10
6.29764e-17
-8.101e-10
7.16438e-17
-7.22568e-10
7.24964e-17
-5.92362e-10
5.55096e-17
-4.08268e-10
-1.58561e-10
-3.34826e-17
-1.58561e-10
-4.87131e-17
-4.08268e-10
-5.18838e-17
-5.92362e-10
-4.86791e-17
-7.22568e-10
-4.23112e-17
-8.101e-10
-3.50341e-17
-8.65483e-10
-2.76056e-17
-8.9813e-10
-2.0209e-17
-9.15809e-10
-1.27819e-17
-9.24372e-10
-5.15772e-18
-9.27694e-10
2.88223e-18
-9.27694e-10
1.16765e-17
-9.24372e-10
2.16073e-17
-9.15809e-10
3.26996e-17
-8.9813e-10
4.46541e-17
-8.65483e-10
5.6426e-17
-8.101e-10
6.5877e-17
-7.22568e-10
6.74796e-17
-5.92362e-10
5.06724e-17
-4.08268e-10
-1.58561e-10
-1.57657e-17
-1.58561e-10
-2.63004e-17
-4.08268e-10
-3.1037e-17
-5.92362e-10
-3.12235e-17
-7.22568e-10
-2.93951e-17
-8.101e-10
-2.65809e-17
-8.65483e-10
-2.30637e-17
-8.9813e-10
-1.87401e-17
-9.15809e-10
-1.36426e-17
-9.24372e-10
-7.91634e-18
-9.27694e-10
-1.61573e-18
-9.27694e-10
5.41218e-18
-9.24372e-10
1.33642e-17
-9.15809e-10
2.2221e-17
-8.9813e-10
3.19957e-17
-8.65483e-10
4.21298e-17
-8.101e-10
5.0872e-17
-7.22568e-10
5.24087e-17
-5.92362e-10
3.81965e-17
-4.08268e-10
-1.58561e-10
8.99683e-19
-1.58561e-10
-5.08168e-18
-4.08268e-10
-1.15612e-17
-5.92362e-10
-1.51301e-17
-7.22568e-10
-1.78942e-17
-8.101e-10
-1.9393e-17
-8.65483e-10
-1.9391e-17
-8.9813e-10
-1.78012e-17
-9.15809e-10
-1.49422e-17
-9.24372e-10
-1.12847e-17
-9.27694e-10
-7.1028e-18
-9.27694e-10
-2.43414e-18
-9.24372e-10
2.6921e-18
-9.15809e-10
8.15649e-18
-8.9813e-10
1.41606e-17
-8.65483e-10
2.06471e-17
-8.101e-10
2.65752e-17
-7.22568e-10
2.71677e-17
-5.92362e-10
1.78006e-17
-4.08268e-10
-1.58561e-10
1.51411e-17
-1.58561e-10
1.26554e-17
-4.08268e-10
3.49022e-18
-5.92362e-10
-3.36645e-18
-7.22568e-10
-9.76911e-18
-8.101e-10
-1.44799e-17
-8.65483e-10
-1.70131e-17
-8.9813e-10
-1.75013e-17
-9.15809e-10
-1.65707e-17
-9.24372e-10
-1.49163e-17
-9.27694e-10
-1.29396e-17
-9.27694e-10
-1.08574e-17
-9.24372e-10
-8.9626e-18
-9.15809e-10
-7.5838e-18
-8.9813e-10
-6.54987e-18
-8.65483e-10
-5.54943e-18
-8.101e-10
-4.7598e-18
-7.22568e-10
-6.08009e-18
-5.92362e-10
-8.99223e-18
-4.08268e-10
-1.58561e-10
2.68953e-17
-1.58561e-10
2.6493e-17
-4.08268e-10
1.28043e-17
-5.92362e-10
2.2897e-18
-7.22568e-10
-6.2137e-18
-8.101e-10
-1.27189e-17
-8.65483e-10
-1.65679e-17
-8.9813e-10
-1.82446e-17
-9.15809e-10
-1.8653e-17
-9.24372e-10
-1.85492e-17
-9.27694e-10
-1.84044e-17
-9.27694e-10
-1.85938e-17
-9.24372e-10
-1.96757e-17
-9.15809e-10
-2.22566e-17
-8.9813e-10
-2.63871e-17
-8.65483e-10
-3.16115e-17
-8.101e-10
-3.73273e-17
-7.22568e-10
-4.15159e-17
-5.92362e-10
-3.67168e-17
-4.08268e-10
-1.58561e-10
3.42295e-17
-1.58561e-10
3.22821e-17
-4.08268e-10
1.50278e-17
-5.92362e-10
1.56113e-18
-7.22568e-10
-7.91709e-18
-8.101e-10
-1.45705e-17
-8.65483e-10
-1.84934e-17
-8.9813e-10
-2.04185e-17
-9.15809e-10
-2.13081e-17
-9.24372e-10
-2.19214e-17
-9.27694e-10
-2.27692e-17
-9.27694e-10
-2.43495e-17
-9.24372e-10
-2.74208e-17
-9.15809e-10
-3.28187e-17
-8.9813e-10
-4.08709e-17
-8.65483e-10
-5.12223e-17
-8.101e-10
-6.26771e-17
-7.22568e-10
-7.02834e-17
-5.92362e-10
-5.96743e-17
-4.08268e-10
-1.58561e-10
3.30908e-17
-1.58561e-10
2.8157e-17
-4.08268e-10
9.76118e-18
-5.92362e-10
-5.20869e-18
-7.22568e-10
-1.45593e-17
-8.101e-10
-2.00049e-17
-8.65483e-10
-2.27948e-17
-8.9813e-10
-2.39419e-17
-9.15809e-10
-2.43414e-17
-9.24372e-10
-2.46588e-17
-9.27694e-10
-2.53976e-17
-9.27694e-10
-2.71081e-17
-9.24372e-10
-3.06128e-17
-9.15809e-10
-3.67983e-17
-8.9813e-10
-4.6157e-17
-8.65483e-10
-5.86043e-17
-8.101e-10
-7.27076e-17
-7.22568e-10
-8.26434e-17
-5.92362e-10
-7.0742e-17
-4.08268e-10
-1.58561e-10
1.95921e-17
-1.58561e-10
1.14465e-17
-4.08268e-10
-3.51145e-18
-5.92362e-10
-1.64673e-17
-7.22568e-10
-2.40437e-17
-8.101e-10
-2.72964e-17
-8.65483e-10
-2.82076e-17
-8.9813e-10
-2.78937e-17
-9.15809e-10
-2.70623e-17
-9.24372e-10
-2.62367e-17
-9.27694e-10
-2.58548e-17
-9.27694e-10
-2.64287e-17
-9.24372e-10
-2.86659e-17
-9.15809e-10
-3.32473e-17