/*--------------------------------*- C++ -*----------------------------------*\
| =========                 |                                                 |
| \\      /  F ield         | OpenFOAM: The Open Source CFD Toolbox           |
|  \\    /   O peration     | Version:  5.x                                   |
|   \\  /    A nd           | Web:      www.OpenFOAM.org                      |
|    \\/     M anipulation  |                                                 |
\*---------------------------------------------------------------------------*/
FoamFile
{
    version     2.0;
    format      ascii;
    class       volVectorField;
    location    "0.15";
    object      U;
}
// * * * * * * * * * * * * * * * * * * * * * * * * * * * * * * * * * * * * * //

dimensions      [0 1 -1 0 0 0 0];

internalField   nonuniform List<vector> 
8000
(
(6.88049e-10 -0.00317122 0)
(2.15748e-09 -0.00816535 0)
(2.29775e-09 -0.0118472 0)
(2.39086e-09 -0.0144514 0)
(2.35375e-09 -0.016202 0)
(2.16046e-09 -0.0173097 0)
(1.82406e-09 -0.0179626 0)
(1.37417e-09 -0.0183162 0)
(8.43918e-10 -0.0184874 0)
(2.66581e-10 -0.0185539 0)
(-3.23857e-10 -0.0185539 0)
(-8.92117e-10 -0.0184874 0)
(-1.39927e-09 -0.0183162 0)
(-1.80374e-09 -0.0179626 0)
(-2.06523e-09 -0.0173097 0)
(-2.15023e-09 -0.016202 0)
(-2.0455e-09 -0.0144514 0)
(-1.77931e-09 -0.0118472 0)
(-1.40519e-09 -0.00816535 0)
(-3.50679e-10 -0.00317122 0)
(5.53737e-10 -0.00317122 0)
(1.94163e-09 -0.00816535 0)
(2.12515e-09 -0.0118472 0)
(2.23839e-09 -0.0144514 0)
(2.21788e-09 -0.016202 0)
(2.03589e-09 -0.0173097 0)
(1.71077e-09 -0.0179626 0)
(1.27474e-09 -0.0183162 0)
(7.59689e-10 -0.0184874 0)
(1.97996e-10 -0.0185539 0)
(-3.75632e-10 -0.0185539 0)
(-9.26164e-10 -0.0184874 0)
(-1.41894e-09 -0.0183162 0)
(-1.81626e-09 -0.0179626 0)
(-2.07662e-09 -0.0173097 0)
(-2.16435e-09 -0.016202 0)
(-2.06907e-09 -0.0144514 0)
(-1.82614e-09 -0.0118472 0)
(-1.51904e-09 -0.00816535 0)
(-4.31896e-10 -0.00317122 0)
(3.63621e-10 -0.00317123 0)
(1.24275e-09 -0.00816535 0)
(1.57116e-09 -0.0118472 0)
(1.78275e-09 -0.0144514 0)
(1.83819e-09 -0.016202 0)
(1.71924e-09 -0.0173097 0)
(1.45209e-09 -0.0179626 0)
(1.07246e-09 -0.0183162 0)
(6.12506e-10 -0.0184874 0)
(1.04023e-10 -0.0185539 0)
(-4.20278e-10 -0.0185539 0)
(-9.29404e-10 -0.0184874 0)
(-1.39218e-09 -0.0183162 0)
(-1.77169e-09 -0.0179626 0)
(-2.02359e-09 -0.0173097 0)
(-2.10454e-09 -0.016202 0)
(-1.98249e-09 -0.0144514 0)
(-1.64991e-09 -0.0118472 0)
(-1.14274e-09 -0.00816535 0)
(-3.03673e-10 -0.00317122 0)
(7.06132e-11 -0.00317123 0)
(4.89835e-10 -0.00816535 0)
(8.8467e-10 -0.0118472 0)
(1.1931e-09 -0.0144514 0)
(1.34353e-09 -0.016202 0)
(1.31216e-09 -0.0173097 0)
(1.12714e-09 -0.0179626 0)
(8.27814e-10 -0.0183162 0)
(4.46699e-10 -0.0184874 0)
(1.39332e-11 -0.0185539 0)
(-4.42811e-10 -0.0185539 0)
(-8.98589e-10 -0.0184874 0)
(-1.32496e-09 -0.0183162 0)
(-1.68557e-09 -0.0179626 0)
(-1.93688e-09 -0.0173097 0)
(-2.02862e-09 -0.016202 0)
(-1.90061e-09 -0.0144514 0)
(-1.4962e-09 -0.0118472 0)
(-8.61524e-10 -0.00816535 0)
(-1.33614e-10 -0.00317122 0)
(-7.73958e-11 -0.00317123 0)
(-4.6057e-11 -0.00816535 0)
(3.0719e-10 -0.0118472 0)
(6.57664e-10 -0.0144514 0)
(8.84453e-10 -0.016202 0)
(9.32065e-10 -0.0173097 0)
(8.22126e-10 -0.0179626 0)
(5.97174e-10 -0.0183162 0)
(2.91392e-10 -0.0184874 0)
(-6.7683e-11 -0.0185539 0)
(-4.57921e-10 -0.0185539 0)
(-8.59048e-10 -0.0184874 0)
(-1.24717e-09 -0.0183162 0)
(-1.59067e-09 -0.0179626 0)
(-1.85e-09 -0.0173097 0)
(-1.97263e-09 -0.016202 0)
(-1.88578e-09 -0.0144514 0)
(-1.50854e-09 -0.0118472 0)
(-8.85167e-10 -0.00816536 0)
(-1.3975e-10 -0.00317122 0)
(-2.35741e-10 -0.00317123 0)
(-4.50683e-10 -0.00816536 0)
(-8.19563e-11 -0.0118472 0)
(2.82538e-10 -0.0144514 0)
(5.51136e-10 -0.016202 0)
(6.50972e-10 -0.0173097 0)
(5.90506e-10 -0.0179626 0)
(4.14156e-10 -0.0183162 0)
(1.62556e-10 -0.0184874 0)
(-1.38223e-10 -0.0185539 0)
(-4.71673e-10 -0.0185539 0)
(-8.22157e-10 -0.0184874 0)
(-1.17199e-09 -0.0183162 0)
(-1.49652e-09 -0.0179626 0)
(-1.7632e-09 -0.0173097 0)
(-1.92696e-09 -0.016202 0)
(-1.92029e-09 -0.0144514 0)
(-1.65894e-09 -0.0118472 0)
(-1.13895e-09 -0.00816536 0)
(-2.28351e-10 -0.00317122 0)
(-1.92867e-10 -0.00317122 0)
(-4.19624e-10 -0.00816536 0)
(-1.47215e-10 -0.0118472 0)
(1.47537e-10 -0.0144514 0)
(3.88997e-10 -0.016202 0)
(5.004e-10 -0.0173097 0)
(4.60207e-10 -0.0179626 0)
(3.05113e-10 -0.0183162 0)
(8.26867e-11 -0.0184874 0)
(-1.78456e-10 -0.0185539 0)
(-4.64889e-10 -0.0185539 0)
(-7.67029e-10 -0.0184874 0)
(-1.07347e-09 -0.0183162 0)
(-1.36789e-09 -0.0179626 0)
(-1.62845e-09 -0.0173097 0)
(-1.82669e-09 -0.016202 0)
(-1.92009e-09 -0.0144514 0)
(-1.8519e-09 -0.0118472 0)
(-1.59056e-09 -0.00816536 0)
(-4.44068e-10 -0.00317123 0)
(-8.79712e-11 -0.00317122 0)
(-1.84619e-10 -0.00816536 0)
(2.29202e-11 -0.0118472 0)
(2.3924e-10 -0.0144514 0)
(3.9481e-10 -0.016202 0)
(4.63754e-10 -0.0173097 0)
(4.19072e-10 -0.0179626 0)
(2.75212e-10 -0.0183162 0)
(7.06081e-11 -0.0184874 0)
(-1.63649e-10 -0.0185539 0)
(-4.11193e-10 -0.0185539 0)
(-6.64242e-10 -0.0184874 0)
(-9.16739e-10 -0.0183162 0)
(-1.16038e-09 -0.0179626 0)
(-1.38308e-09 -0.0173097 0)
(-1.57706e-09 -0.016202 0)
(-1.73193e-09 -0.0144514 0)
(-1.82831e-09 -0.0118472 0)
(-1.87033e-09 -0.00816536 0)
(-6.55088e-10 -0.00317123 0)
(-3.79978e-11 -0.00317122 0)
(6.46258e-12 -0.00816536 0)
(2.30193e-10 -0.0118472 0)
(4.1456e-10 -0.0144514 0)
(4.92647e-10 -0.016202 0)
(4.95568e-10 -0.0173097 0)
(4.27808e-10 -0.0179626 0)
(2.91659e-10 -0.0183162 0)
(1.08707e-10 -0.0184874 0)
(-9.49881e-11 -0.0185539 0)
(-3.01423e-10 -0.0185539 0)
(-5.00652e-10 -0.0184874 0)
(-6.87355e-10 -0.0183162 0)
(-8.55808e-10 -0.0179626 0)
(-1.00044e-09 -0.0173097 0)
(-1.12933e-09 -0.016202 0)
(-1.23108e-09 -0.0144514 0)
(-1.29289e-09 -0.0118472 0)
(-1.34793e-09 -0.00816536 0)
(-4.86338e-10 -0.00317123 0)
(1.72392e-11 -0.00317122 0)
(2.02058e-10 -0.00816536 0)
(4.17183e-10 -0.0118472 0)
(5.61103e-10 -0.0144514 0)
(5.83946e-10 -0.016202 0)
(5.33065e-10 -0.0173097 0)
(4.41114e-10 -0.0179626 0)
(3.14714e-10 -0.0183162 0)
(1.62656e-10 -0.0184874 0)
(1.00587e-12 -0.0185539 0)
(-1.54716e-10 -0.0185539 0)
(-2.93981e-10 -0.0184874 0)
(-4.09838e-10 -0.0183162 0)
(-4.95724e-10 -0.0179626 0)
(-5.54768e-10 -0.0173097 0)
(-5.94262e-10 -0.016202 0)
(-5.73308e-10 -0.0144514 0)
(-4.63346e-10 -0.0118472 0)
(-3.26575e-10 -0.00816536 0)
(-7.24219e-11 -0.00317123 0)
(1.16669e-10 -0.00317122 0)
(4.19049e-10 -0.00816536 0)
(5.47291e-10 -0.0118472 0)
(6.14824e-10 -0.0144514 0)
(5.98547e-10 -0.016202 0)
(5.24736e-10 -0.0173097 0)
(4.27479e-10 -0.0179626 0)
(3.19409e-10 -0.0183162 0)
(2.04498e-10 -0.0184874 0)
(9.15324e-11 -0.0185539 0)
(-8.73555e-12 -0.0185539 0)
(-8.82542e-11 -0.0184874 0)
(-1.41121e-10 -0.0183162 0)
(-1.65844e-10 -0.0179626 0)
(-1.73048e-10 -0.0173097 0)
(-1.47053e-10 -0.016202 0)
(-3.37945e-11 -0.0144514 0)
(1.61574e-10 -0.0118472 0)
(3.82609e-10 -0.00816536 0)
(1.97881e-10 -0.00317123 0)
(8.40446e-11 -0.00317123 0)
(3.80921e-10 -0.00816536 0)
(4.97291e-10 -0.0118472 0)
(5.24861e-10 -0.0144514 0)
(5.05169e-10 -0.016202 0)
(4.50007e-10 -0.0173097 0)
(3.76035e-10 -0.0179626 0)
(2.98925e-10 -0.0183162 0)
(2.24687e-10 -0.0184874 0)
(1.59741e-10 -0.0185539 0)
(1.11087e-10 -0.0185539 0)
(8.28135e-11 -0.0184874 0)
(7.56238e-11 -0.0183162 0)
(7.86855e-11 -0.0179626 0)
(8.39425e-11 -0.0173097 0)
(1.38937e-10 -0.016202 0)
(2.78052e-10 -0.0144514 0)
(4.10642e-10 -0.0118472 0)
(4.55998e-10 -0.00816536 0)
(1.40859e-10 -0.00317123 0)
(6.63976e-11 -0.00317123 0)
(2.98709e-10 -0.00816536 0)
(3.51242e-10 -0.0118472 0)
(3.43524e-10 -0.0144514 0)
(3.38921e-10 -0.016202 0)
(3.30302e-10 -0.0173097 0)
(3.02484e-10 -0.0179626 0)
(2.64381e-10 -0.0183162 0)
(2.29586e-10 -0.0184874 0)
(2.06427e-10 -0.0185539 0)
(2.00271e-10 -0.0185539 0)
(2.1079e-10 -0.0184874 0)
(2.29625e-10 -0.0183162 0)
(2.35676e-10 -0.0179626 0)
(2.39906e-10 -0.0173097 0)
(3.08189e-10 -0.016202 0)
(4.38347e-10 -0.0144514 0)
(5.14954e-10 -0.0118472 0)
(4.83364e-10 -0.00816536 0)
(1.33348e-10 -0.00317123 0)
(6.48715e-11 -0.00317123 0)
(2.56438e-10 -0.00816536 0)
(2.50208e-10 -0.0118472 0)
(2.10402e-10 -0.0144514 0)
(2.02642e-10 -0.016202 0)
(2.20418e-10 -0.0173097 0)
(2.32689e-10 -0.0179626 0)
(2.32379e-10 -0.0183162 0)
(2.31639e-10 -0.0184874 0)
(2.41305e-10 -0.0185539 0)
(2.66417e-10 -0.0185539 0)
(3.00258e-10 -0.0184874 0)
(3.2391e-10 -0.0183162 0)
(3.2717e-10 -0.0179626 0)
(3.43781e-10 -0.0173097 0)
(4.16455e-10 -0.016202 0)
(5.08928e-10 -0.0144514 0)
(5.41396e-10 -0.0118472 0)
(5.02641e-10 -0.00816536 0)
(1.5733e-10 -0.00317123 0)
(1.02033e-10 -0.00317123 0)
(2.95864e-10 -0.00816536 0)
(2.18502e-10 -0.0118472 0)
(1.39982e-10 -0.0144514 0)
(1.12518e-10 -0.016202 0)
(1.32985e-10 -0.0173097 0)
(1.73814e-10 -0.0179626 0)
(2.11201e-10 -0.0183162 0)
(2.42951e-10 -0.0184874 0)
(2.78182e-10 -0.0185539 0)
(3.22514e-10 -0.0185539 0)
(3.63599e-10 -0.0184874 0)
(3.80246e-10 -0.0183162 0)
(3.82262e-10 -0.0179626 0)
(4.07786e-10 -0.0173097 0)
(4.60366e-10 -0.016202 0)
(4.88512e-10 -0.0144514 0)
(4.41234e-10 -0.0118472 0)
(3.55826e-10 -0.00816536 0)
(1.13116e-10 -0.00317123 0)
(1.4137e-10 -0.00317123 0)
(3.0481e-10 -0.00816536 0)
(1.56289e-10 -0.0118472 0)
(5.7459e-11 -0.0144514 0)
(2.60992e-11 -0.016202 0)
(5.15666e-11 -0.0173097 0)
(1.15778e-10 -0.0179626 0)
(1.91124e-10 -0.0183162 0)
(2.62352e-10 -0.0184874 0)
(3.25392e-10 -0.0185539 0)
(3.76571e-10 -0.0185539 0)
(4.07487e-10 -0.0184874 0)
(4.16355e-10 -0.0183162 0)
(4.20503e-10 -0.0179626 0)
(4.36679e-10 -0.0173097 0)
(4.47652e-10 -0.016202 0)
(4.02968e-10 -0.0144514 0)
(2.55791e-10 -0.0118472 0)
(6.79153e-11 -0.00816536 0)
(2.88318e-12 -0.00317123 0)
(7.86409e-11 -0.00317123 0)
(9.56618e-11 -0.00816536 0)
(-2.98302e-11 -0.0118472 0)
(-8.26273e-11 -0.0144514 0)
(-7.64342e-11 -0.016202 0)
(-2.55749e-11 -0.0173097 0)
(6.10306e-11 -0.0179626 0)
(1.6402e-10 -0.0183162 0)
(2.65977e-10 -0.0184874 0)
(3.52534e-10 -0.0185539 0)
(4.11588e-10 -0.0185539 0)
(4.42625e-10 -0.0184874 0)
(4.56167e-10 -0.0183162 0)
(4.64894e-10 -0.0179626 0)
(4.67104e-10 -0.0173097 0)
(4.35933e-10 -0.016202 0)
(3.19328e-10 -0.0144514 0)
(6.31353e-11 -0.0118472 0)
(-2.62423e-10 -0.00816536 0)
(-1.49868e-10 -0.00317123 0)
(-8.96328e-11 -0.00317123 0)
(-2.94374e-10 -0.00816536 0)
(-2.86212e-10 -0.0118472 0)
(-2.34428e-10 -0.0144514 0)
(-1.70108e-10 -0.016202 0)
(-8.72479e-11 -0.0173097 0)
(1.79132e-11 -0.0179626 0)
(1.36298e-10 -0.0183162 0)
(2.54234e-10 -0.0184874 0)
(3.56589e-10 -0.0185539 0)
(4.3092e-10 -0.0185539 0)
(4.79107e-10 -0.0184874 0)
(5.11508e-10 -0.0183162 0)
(5.32551e-10 -0.0179626 0)
(5.32312e-10 -0.0173097 0)
(4.82658e-10 -0.016202 0)
(3.36758e-10 -0.0144514 0)
(5.74626e-11 -0.0118472 0)
(-3.10339e-10 -0.00816536 0)
(-1.98104e-10 -0.00317123 0)
(-1.89096e-10 -0.00317123 0)
(-5.25224e-10 -0.00816536 0)
(-4.30942e-10 -0.0118472 0)
(-3.13955e-10 -0.0144514 0)
(-2.18161e-10 -0.016202 0)
(-1.18835e-10 -0.0173097 0)
(-5.7296e-12 -0.0179626 0)
(1.17351e-10 -0.0183162 0)
(2.41002e-10 -0.0184874 0)
(3.54587e-10 -0.0185539 0)
(4.49198e-10 -0.0185539 0)
(5.23903e-10 -0.0184874 0)
(5.83069e-10 -0.0183162 0)
(6.25719e-10 -0.0179626 0)
(6.40494e-10 -0.0173097 0)
(6.04454e-10 -0.016202 0)
(4.90885e-10 -0.0144514 0)
(3.18907e-10 -0.0118472 0)
(1.22257e-10 -0.00816536 0)
(-9.38895e-12 -0.00317123 0)
(-1.64165e-10 -0.00317123 0)
(-4.58788e-10 -0.00816536 0)
(-3.87804e-10 -0.0118472 0)
(-2.90585e-10 -0.0144514 0)
(-2.06603e-10 -0.016202 0)
(-1.13435e-10 -0.0173097 0)
(-4.62816e-12 -0.0179626 0)
(1.15432e-10 -0.0183162 0)
(2.39333e-10 -0.0184874 0)
(3.60539e-10 -0.0185539 0)
(4.73263e-10 -0.0185539 0)
(5.735e-10 -0.0184874 0)
(6.60862e-10 -0.0183162 0)
(7.31993e-10 -0.0179626 0)
(7.74033e-10 -0.0173097 0)
(7.69339e-10 -0.016202 0)
(7.21764e-10 -0.0144514 0)
(7.01419e-10 -0.0118472 0)
(7.08695e-10 -0.00816536 0)
(2.35937e-10 -0.00317123 0)
(-1.66123e-11 -0.00317123 0)
(-1.46489e-10 -0.00816536 0)
(-2.11641e-10 -0.0118472 0)
(-2.01639e-10 -0.0144514 0)
(-1.53929e-10 -0.016202 0)
(-7.76678e-11 -0.0173097 0)
(2.05615e-11 -0.0179626 0)
(1.33045e-10 -0.0183162 0)
(2.52767e-10 -0.0184874 0)
(3.75447e-10 -0.0185539 0)
(4.97773e-10 -0.0185539 0)
(6.16343e-10 -0.0184874 0)
(7.2836e-10 -0.0183162 0)
(8.26381e-10 -0.0179626 0)
(8.93435e-10 -0.0173097 0)
(9.16911e-10 -0.016202 0)
(9.31837e-10 -0.0144514 0)
(1.02055e-09 -0.0118472 0)
(1.12208e-09 -0.00816536 0)
(3.79063e-10 -0.00317123 0)
(1.25943e-10 -0.00317123 0)
(9.60375e-11 -0.00816536 0)
(-8.68484e-11 -0.0118472 0)
(-1.30351e-10 -0.0144514 0)
(-9.47674e-11 -0.016202 0)
(-2.4896e-11 -0.0173097 0)
(6.37483e-11 -0.0179626 0)
(1.64824e-10 -0.0183162 0)
(2.74234e-10 -0.0184874 0)
(3.90109e-10 -0.0185539 0)
(5.11741e-10 -0.0185539 0)
(6.37819e-10 -0.0184874 0)
(7.63969e-10 -0.0183162 0)
(8.76831e-10 -0.0179626 0)
(9.53715e-10 -0.0173097 0)
(9.90965e-10 -0.016202 0)
(1.05328e-09 -0.0144514 0)
(1.21347e-09 -0.0118472 0)
(1.36624e-09 -0.00816536 0)
(4.70463e-10 -0.00317123 0)
(-4.8889e-11 -0.00317123 0)
(-1.90303e-10 -0.00816536 0)
(-1.62418e-10 -0.0118472 0)
(-1.06033e-10 -0.0144514 0)
(-3.09353e-11 -0.016202 0)
(4.58632e-11 -0.0173097 0)
(1.22967e-10 -0.0179626 0)
(2.05278e-10 -0.0183162 0)
(2.95543e-10 -0.0184874 0)
(3.94854e-10 -0.0185539 0)
(5.04442e-10 -0.0185539 0)
(6.24344e-10 -0.0184874 0)
(7.48116e-10 -0.0183162 0)
(8.55661e-10 -0.0179626 0)
(9.20465e-10 -0.0173097 0)
(9.5532e-10 -0.016202 0)
(1.04694e-09 -0.0144514 0)
(1.23516e-09 -0.0118472 0)
(1.36502e-09 -0.00816536 0)
(4.58402e-10 -0.00317123 0)
(-2.54078e-10 -0.00317122 0)
(-4.79767e-10 -0.00816536 0)
(-1.83325e-10 -0.0118472 0)
(-8.34356e-12 -0.0144514 0)
(9.41291e-11 -0.016202 0)
(1.58207e-10 -0.0173097 0)
(2.04854e-10 -0.0179626 0)
(2.52216e-10 -0.0183162 0)
(3.09977e-10 -0.0184874 0)
(3.81131e-10 -0.0185539 0)
(4.66816e-10 -0.0185539 0)
(5.65976e-10 -0.0184874 0)
(6.68426e-10 -0.0183162 0)
(7.48751e-10 -0.0179626 0)
(7.83813e-10 -0.0173097 0)
(8.10464e-10 -0.016202 0)
(9.21309e-10 -0.0144514 0)
(1.10671e-09 -0.0118472 0)
(1.17748e-09 -0.00816536 0)
(3.7611e-10 -0.00317122 0)
(-1.38734e-10 -0.00317122 0)
(-1.48356e-10 -0.00816536 0)
(1.34282e-10 -0.0118472 0)
(2.78289e-10 -0.0144514 0)
(3.23831e-10 -0.016202 0)
(3.23895e-10 -0.0173097 0)
(3.0789e-10 -0.0179626 0)
(2.99514e-10 -0.0183162 0)
(3.10548e-10 -0.0184874 0)
(3.42511e-10 -0.0185539 0)
(3.93268e-10 -0.0185539 0)
(4.58073e-10 -0.0184874 0)
(5.22782e-10 -0.0183162 0)
(5.6077e-10 -0.0179626 0)
(5.62377e-10 -0.0173097 0)
(5.91164e-10 -0.016202 0)
(7.23297e-10 -0.0144514 0)
(8.92101e-10 -0.0118472 0)
(9.08332e-10 -0.00816536 0)
(2.72331e-10 -0.00317122 0)
(2.06715e-10 -0.00317122 0)
(6.40593e-10 -0.00816536 0)
(7.08566e-10 -0.0118472 0)
(6.99207e-10 -0.0144514 0)
(6.1743e-10 -0.016202 0)
(5.10976e-10 -0.0173097 0)
(4.08161e-10 -0.0179626 0)
(3.30581e-10 -0.0183162 0)
(2.86624e-10 -0.0184874 0)
(2.72688e-10 -0.0185539 0)
(2.81044e-10 -0.0185539 0)
(3.0274e-10 -0.0184874 0)
(3.21183e-10 -0.0183162 0)
(3.13305e-10 -0.0179626 0)
(2.92197e-10 -0.0173097 0)
(3.42569e-10 -0.016202 0)
(5.03301e-10 -0.0144514 0)
(6.59405e-10 -0.0118472 0)
(6.55532e-10 -0.00816536 0)
(1.88175e-10 -0.00317122 0)
(3.73173e-10 -0.00317123 0)
(1.1925e-09 -0.00816536 0)
(1.20941e-09 -0.0118472 0)
(1.07708e-09 -0.0144514 0)
(8.67847e-10 -0.016202 0)
(6.52266e-10 -0.0173097 0)
(4.64038e-10 -0.0179626 0)
(3.20709e-10 -0.0183162 0)
(2.24824e-10 -0.0184874 0)
(1.66298e-10 -0.0185539 0)
(1.32004e-10 -0.0185539 0)
(1.10149e-10 -0.0184874 0)
(8.35088e-11 -0.0183162 0)
(3.58514e-11 -0.0179626 0)
(7.9157e-12 -0.0173097 0)
(9.31245e-11 -0.016202 0)
(2.81665e-10 -0.0144514 0)
(4.36843e-10 -0.0118472 0)
(4.55195e-10 -0.00816536 0)
(1.35954e-10 -0.00317122 0)
(4.71261e-10 -0.00317123 0)
(1.52877e-09 -0.00816536 0)
(1.49852e-09 -0.0118472 0)
(1.27609e-09 -0.0144514 0)
(9.74636e-10 -0.016202 0)
(6.8144e-10 -0.0173097 0)
(4.3503e-10 -0.0179626 0)
(2.47317e-10 -0.0183162 0)
(1.14996e-10 -0.0184874 0)
(2.27497e-11 -0.0185539 0)
(-4.57665e-11 -0.0185539 0)
(-1.03772e-10 -0.0184874 0)
(-1.708e-10 -0.0183162 0)
(-2.50836e-10 -0.0179626 0)
(-2.74598e-10 -0.0173097 0)
(-1.5911e-10 -0.016202 0)
(3.78183e-11 -0.0144514 0)
(1.9316e-10 -0.0118472 0)
(2.60722e-10 -0.00816535 0)
(9.38497e-11 -0.00317122 0)
(6.41938e-10 -0.00317123 0)
(1.70669e-09 -0.00816536 0)
(1.46932e-09 -0.0118472 0)
(1.19185e-09 -0.0144514 0)
(8.63552e-10 -0.016202 0)
(5.53215e-10 -0.0173097 0)
(2.96569e-10 -0.0179626 0)
(9.95961e-11 -0.0183162 0)
(-4.38532e-11 -0.0184874 0)
(-1.51123e-10 -0.0185539 0)
(-2.38753e-10 -0.0185539 0)
(-3.22942e-10 -0.0184874 0)
(-4.25729e-10 -0.0183162 0)
(-5.29132e-10 -0.0179626 0)
(-5.42084e-10 -0.0173097 0)
(-4.16676e-10 -0.016202 0)
(-2.55425e-10 -0.0144514 0)
(-1.30724e-10 -0.0118472 0)
(-1.61892e-11 -0.00816535 0)
(2.42449e-11 -0.00317122 0)
(3.96055e-10 -0.00317123 0)
(1.07056e-09 -0.00816536 0)
(9.30051e-10 -0.0118472 0)
(7.42832e-10 -0.0144514 0)
(5.01872e-10 -0.016202 0)
(2.60512e-10 -0.0173097 0)
(5.33548e-11 -0.0179626 0)
(-1.12168e-10 -0.0183162 0)
(-2.37638e-10 -0.0184874 0)
(-3.38398e-10 -0.0185539 0)
(-4.32626e-10 -0.0185539 0)
(-5.39999e-10 -0.0184874 0)
(-6.69943e-10 -0.0183162 0)
(-7.67917e-10 -0.0179626 0)
(-7.47524e-10 -0.0173097 0)
(-6.51017e-10 -0.016202 0)
(-6.00412e-10 -0.0144514 0)
(-5.57955e-10 -0.0118472 0)
(-4.1269e-10 -0.00816536 0)
(-8.71298e-11 -0.00317122 0)
(-7.41297e-11 -0.00317123 0)
(-1.33323e-12 -0.00816536 0)
(7.97327e-11 -0.0118472 0)
(5.14356e-11 -0.0144514 0)
(-3.04162e-11 -0.016202 0)
(-1.36794e-10 -0.0173097 0)
(-2.47033e-10 -0.0179626 0)
(-3.48799e-10 -0.0183162 0)
(-4.32584e-10 -0.0184874 0)
(-5.08458e-10 -0.0185539 0)
(-5.9367e-10 -0.0185539 0)
(-7.0438e-10 -0.0184874 0)
(-8.26928e-10 -0.0183162 0)
(-8.89247e-10 -0.0179626 0)
(-8.73874e-10 -0.0173097 0)
(-8.91989e-10 -0.016202 0)
(-9.88619e-10 -0.0144514 0)
(-1.02878e-09 -0.0118472 0)
(-8.66699e-10 -0.00816536 0)
(-2.18189e-10 -0.00317122 0)
(-1.50367e-10 -0.00317123 0)
(-4.95888e-10 -0.00816536 0)
(-5.72064e-10 -0.0118472 0)
(-6.0064e-10 -0.0144514 0)
(-5.68311e-10 -0.016202 0)
(-5.30022e-10 -0.0173097 0)
(-5.23986e-10 -0.0179626 0)
(-5.47763e-10 -0.0183162 0)
(-5.7971e-10 -0.0184874 0)
(-6.17572e-10 -0.0185539 0)
(-6.804e-10 -0.0185539 0)
(-7.79314e-10 -0.0184874 0)
(-8.75634e-10 -0.0183162 0)
(-9.25459e-10 -0.0179626 0)
(-9.77371e-10 -0.0173097 0)
(-1.12719e-09 -0.016202 0)
(-1.34597e-09 -0.0144514 0)
(-1.46657e-09 -0.0118472 0)
(-1.33726e-09 -0.00816536 0)
(-3.69498e-10 -0.00317122 0)
(-2.82316e-10 -0.00317123 0)
(-1.01321e-09 -0.00816536 0)
(-1.15607e-09 -0.0118472 0)
(-1.15736e-09 -0.0144514 0)
(-1.01569e-09 -0.016202 0)
(-8.32841e-10 -0.0173097 0)
(-7.02053e-10 -0.0179626 0)
(-6.41638e-10 -0.0183162 0)
(-6.23912e-10 -0.0184874 0)
(-6.33035e-10 -0.0185539 0)
(-6.82872e-10 -0.0185539 0)
(-7.67603e-10 -0.0184874 0)
(-8.46654e-10 -0.0183162 0)
(-9.20565e-10 -0.0179626 0)
(-1.04604e-09 -0.0173097 0)
(-1.28328e-09 -0.016202 0)
(-1.58347e-09 -0.0144514 0)
(-1.7916e-09 -0.0118472 0)
(-1.80544e-09 -0.00816536 0)
(-5.85053e-10 -0.00317122 0)
(-5.25382e-10 -0.00317123 0)
(-1.69542e-09 -0.00816536 0)
(-1.73107e-09 -0.0118472 0)
(-1.58196e-09 -0.0144514 0)
(-1.3057e-09 -0.016202 0)
(-9.89973e-10 -0.0173097 0)
(-7.3861e-10 -0.0179626 0)
(-5.89613e-10 -0.0183162 0)
(-5.32697e-10 -0.0184874 0)
(-5.39104e-10 -0.0185539 0)
(-5.86623e-10 -0.0185539 0)
(-6.52064e-10 -0.0184874 0)
(-7.24797e-10 -0.0183162 0)
(-8.27121e-10 -0.0179626 0)
(-9.98543e-10 -0.0173097 0)
(-1.27248e-09 -0.016202 0)
(-1.59035e-09 -0.0144514 0)
(-1.82198e-09 -0.0118472 0)
(-1.86743e-09 -0.00816536 0)
(-6.06798e-10 -0.00317123 0)
(-7.57467e-10 -0.00317123 0)
(-2.25262e-09 -0.00816536 0)
(-2.09135e-09 -0.0118472 0)
(-1.76186e-09 -0.0144514 0)
(-1.36293e-09 -0.016202 0)
(-9.58971e-10 -0.0173097 0)
(-6.29422e-10 -0.0179626 0)
(-4.21521e-10 -0.0183162 0)
(-3.38374e-10 -0.0184874 0)
(-3.38432e-10 -0.0185539 0)
(-3.7702e-10 -0.0185539 0)
(-4.39126e-10 -0.0184874 0)
(-5.32932e-10 -0.0183162 0)
(-6.55912e-10 -0.0179626 0)
(-8.32583e-10 -0.0173097 0)
(-1.09335e-09 -0.016202 0)
(-1.38362e-09 -0.0144514 0)
(-1.6049e-09 -0.0118472 0)
(-1.66013e-09 -0.00816536 0)
(-5.47528e-10 -0.00317123 0)
(-8.44497e-10 -0.00317122 0)
(-2.37717e-09 -0.00816536 0)
(-2.03875e-09 -0.0118472 0)
(-1.58167e-09 -0.0144514 0)
(-1.12285e-09 -0.016202 0)
(-7.13449e-10 -0.0173097 0)
(-3.90946e-10 -0.0179626 0)
(-1.79652e-10 -0.0183162 0)
(-8.41242e-11 -0.0184874 0)
(-7.05203e-11 -0.0185539 0)
(-1.07997e-10 -0.0185539 0)
(-1.94368e-10 -0.0184874 0)
(-3.1681e-10 -0.0183162 0)
(-4.42645e-10 -0.0179626 0)
(-5.97218e-10 -0.0173097 0)
(-8.12515e-10 -0.016202 0)
(-1.03984e-09 -0.0144514 0)
(-1.1882e-09 -0.0118472 0)
(-1.14482e-09 -0.00816536 0)
(-3.27893e-10 -0.00317123 0)
(-7.12985e-10 -0.00317122 0)
(-1.9266e-09 -0.00816536 0)
(-1.51378e-09 -0.0118472 0)
(-1.02107e-09 -0.0144514 0)
(-5.87962e-10 -0.016202 0)
(-2.57537e-10 -0.0173097 0)
(-2.8296e-11 -0.0179626 0)
(1.17971e-10 -0.0183162 0)
(1.85229e-10 -0.0184874 0)
(1.81688e-10 -0.0185539 0)
(1.17116e-10 -0.0185539 0)
(5.28187e-12 -0.0184874 0)
(-1.10455e-10 -0.0183162 0)
(-2.07707e-10 -0.0179626 0)
(-3.26961e-10 -0.0173097 0)
(-4.89748e-10 -0.016202 0)
(-6.57515e-10 -0.0144514 0)
(-7.79137e-10 -0.0118472 0)
(-7.85506e-10 -0.00816536 0)
(-2.32918e-10 -0.00317123 0)
(-3.84132e-10 -0.00317122 0)
(-9.3741e-10 -0.00816536 0)
(-5.54665e-10 -0.0118472 0)
(-1.35679e-10 -0.0144514 0)
(1.81756e-10 -0.016202 0)
(3.68653e-10 -0.0173097 0)
(4.53336e-10 -0.0179626 0)
(4.74899e-10 -0.0183162 0)
(4.47408e-10 -0.0184874 0)
(3.70952e-10 -0.0185539 0)
(2.5826e-10 -0.0185539 0)
(1.45075e-10 -0.0184874 0)
(6.69007e-11 -0.0183162 0)
(8.76977e-12 -0.0179626 0)
(-7.27503e-11 -0.0173097 0)
(-1.74955e-10 -0.016202 0)
(-2.72519e-10 -0.0144514 0)
(-3.78965e-10 -0.0118472 0)
(-5.01249e-10 -0.00816536 0)
(-1.97158e-10 -0.00317123 0)
(4.7208e-11 -0.00317122 0)
(4.0997e-10 -0.00816536 0)
(7.06755e-10 -0.0118472 0)
(9.45861e-10 -0.0144514 0)
(1.06165e-09 -0.016202 0)
(1.05038e-09 -0.0173097 0)
(9.64038e-10 -0.0179626 0)
(8.43459e-10 -0.0183162 0)
(7.0138e-10 -0.0184874 0)
(5.42391e-10 -0.0185539 0)
(3.90433e-10 -0.0185539 0)
(2.80215e-10 -0.0184874 0)
(2.21361e-10 -0.0183162 0)
(1.84768e-10 -0.0179626 0)
(1.39762e-10 -0.0173097 0)
(1.07321e-10 -0.016202 0)
(9.889e-11 -0.0144514 0)
(5.42538e-11 -0.0118472 0)
(-6.95903e-11 -0.00816536 0)
(-6.18475e-11 -0.00317123 0)
(5.56021e-10 -0.00317122 0)
(1.92725e-09 -0.00816536 0)
(2.036e-09 -0.0118472 0)
(2.00605e-09 -0.0144514 0)
(1.86307e-09 -0.016202 0)
(1.63913e-09 -0.0173097 0)
(1.39068e-09 -0.0179626 0)
(1.14805e-09 -0.0183162 0)
(9.18347e-10 -0.0184874 0)
(7.06333e-10 -0.0185539 0)
(5.30189e-10 -0.0185539 0)
(4.10421e-10 -0.0184874 0)
(3.44482e-10 -0.0183162 0)
(3.08472e-10 -0.0179626 0)
(2.91967e-10 -0.0173097 0)
(3.24084e-10 -0.016202 0)
(4.00587e-10 -0.0144514 0)
(4.45584e-10 -0.0118472 0)
(3.96563e-10 -0.00816536 0)
(1.03676e-10 -0.00317123 0)
(1.24455e-09 -0.00317122 0)
(3.4186e-09 -0.00816536 0)
(3.06398e-09 -0.0118472 0)
(2.72466e-09 -0.0144514 0)
(2.35591e-09 -0.016202 0)
(1.98156e-09 -0.0173097 0)
(1.63332e-09 -0.0179626 0)
(1.32273e-09 -0.0183162 0)
(1.04912e-09 -0.0184874 0)
(8.14099e-10 -0.0185539 0)
(6.27208e-10 -0.0185539 0)
(4.97259e-10 -0.0184874 0)
(4.16729e-10 -0.0183162 0)
(3.71239e-10 -0.0179626 0)
(3.70555e-10 -0.0173097 0)
(4.45141e-10 -0.016202 0)
(5.8119e-10 -0.0144514 0)
(7.18249e-10 -0.0118472 0)
(7.98947e-10 -0.00816536 0)
(2.69636e-10 -0.00317123 0)
(1.27414e-09 -0.00317123 0)
(3.55279e-09 -0.00816536 0)
(3.19592e-09 -0.0118472 0)
(2.79737e-09 -0.0144514 0)
(2.38157e-09 -0.016202 0)
(1.98594e-09 -0.0173097 0)
(1.63476e-09 -0.0179626 0)
(1.32759e-09 -0.0183162 0)
(1.0601e-09 -0.0184874 0)
(8.33793e-10 -0.0185539 0)
(6.53675e-10 -0.0185539 0)
(5.21817e-10 -0.0184874 0)
(4.30446e-10 -0.0183162 0)
(3.74386e-10 -0.0179626 0)
(3.75931e-10 -0.0173097 0)
(4.59633e-10 -0.016202 0)
(6.09691e-10 -0.0144514 0)
(8.00297e-10 -0.0118472 0)
(9.93986e-10 -0.00816536 0)
(3.69968e-10 -0.00317123 0)
(9.97666e-10 -0.00317123 0)
(2.70354e-09 -0.00816536 0)
(2.50308e-09 -0.0118472 0)
(2.27562e-09 -0.0144514 0)
(1.98647e-09 -0.016202 0)
(1.68718e-09 -0.0173097 0)
(1.41302e-09 -0.0179626 0)
(1.16657e-09 -0.0183162 0)
(9.47406e-10 -0.0184874 0)
(7.59357e-10 -0.0185539 0)
(6.05875e-10 -0.0185539 0)
(4.86334e-10 -0.0184874 0)
(3.94964e-10 -0.0183162 0)
(3.32734e-10 -0.0179626 0)
(3.24523e-10 -0.0173097 0)
(3.83013e-10 -0.016202 0)
(4.92536e-10 -0.0144514 0)
(6.64129e-10 -0.0118472 0)
(8.76015e-10 -0.00816536 0)
(3.41036e-10 -0.00317123 0)
(5.85298e-11 -0.00317123 0)
(8.27147e-10 -0.00816536 0)
(1.30095e-09 -0.0118472 0)
(1.42654e-09 -0.0144514 0)
(1.3508e-09 -0.016202 0)
(1.20213e-09 -0.0173097 0)
(1.03995e-09 -0.0179626 0)
(8.81929e-10 -0.0183162 0)
(7.35085e-10 -0.0184874 0)
(6.05676e-10 -0.0185539 0)
(4.96811e-10 -0.0185539 0)
(4.07e-10 -0.0184874 0)
(3.31454e-10 -0.0183162 0)
(2.72722e-10 -0.0179626 0)
(2.50239e-10 -0.0173097 0)
(2.62491e-10 -0.016202 0)
(2.9101e-10 -0.0144514 0)
(3.67816e-10 -0.0118472 0)
(4.86759e-10 -0.00816536 0)
(1.90446e-10 -0.00317123 0)
(5.21534e-11 -0.00317123 0)
(3.39585e-10 -0.00816536 0)
(5.63762e-10 -0.0118472 0)
(6.88895e-10 -0.0144514 0)
(7.04966e-10 -0.016202 0)
(6.64178e-10 -0.0173097 0)
(6.01961e-10 -0.0179626 0)
(5.33217e-10 -0.0183162 0)
(4.661e-10 -0.0184874 0)
(4.06296e-10 -0.0185539 0)
(3.55497e-10 -0.0185539 0)
(3.11109e-10 -0.0184874 0)
(2.67877e-10 -0.0183162 0)
(2.27007e-10 -0.0179626 0)
(1.98781e-10 -0.0173097 0)
(1.69028e-10 -0.016202 0)
(1.12578e-10 -0.0144514 0)
(5.97894e-11 -0.0118472 0)
(2.98074e-11 -0.00816536 0)
(3.88338e-12 -0.00317123 0)
(5.66066e-11 -0.00317123 0)
(6.23087e-11 -0.00816536 0)
(4.01319e-11 -0.0118472 0)
(7.87611e-11 -0.0144514 0)
(1.18163e-10 -0.016202 0)
(1.45344e-10 -0.0173097 0)
(1.63679e-10 -0.0179626 0)
(1.76569e-10 -0.0183162 0)
(1.88545e-10 -0.0184874 0)
(2.02394e-10 -0.0185539 0)
(2.17226e-10 -0.0185539 0)
(2.28934e-10 -0.0184874 0)
(2.31742e-10 -0.0183162 0)
(2.25558e-10 -0.0179626 0)
(2.12651e-10 -0.0173097 0)
(1.70254e-10 -0.016202 0)
(6.5746e-11 -0.0144514 0)
(-8.34695e-11 -0.0118472 0)
(-2.37756e-10 -0.00816536 0)
(-1.14374e-10 -0.00317123 0)
(-8.88554e-11 -0.00317123 0)
(-3.95723e-10 -0.00816536 0)
(-4.81539e-10 -0.0118472 0)
(-4.64374e-10 -0.0144514 0)
(-3.99359e-10 -0.016202 0)
(-3.16575e-10 -0.0173097 0)
(-2.2863e-10 -0.0179626 0)
(-1.41044e-10 -0.0183162 0)
(-5.41395e-11 -0.0184874 0)
(3.13062e-11 -0.0185539 0)
(1.12036e-10 -0.0185539 0)
(1.83216e-10 -0.0184874 0)
(2.40142e-10 -0.0183162 0)
(2.83634e-10 -0.0179626 0)
(3.11673e-10 -0.0173097 0)
(2.97527e-10 -0.016202 0)
(2.03213e-10 -0.0144514 0)
(3.21128e-11 -0.0118472 0)
(-1.66932e-10 -0.00816536 0)
(-1.0167e-10 -0.00317123 0)
(-2.48572e-10 -0.00317123 0)
(-8.76067e-10 -0.00816536 0)
(-9.67114e-10 -0.0118472 0)
(-9.31749e-10 -0.0144514 0)
(-8.28494e-10 -0.016202 0)
(-6.91736e-10 -0.0173097 0)
(-5.40159e-10 -0.0179626 0)
(-3.84986e-10 -0.0183162 0)
(-2.31649e-10 -0.0184874 0)
(-8.38794e-11 -0.0185539 0)
(5.44736e-11 -0.0185539 0)
(1.79928e-10 -0.0184874 0)
(2.91183e-10 -0.0183162 0)
(3.92302e-10 -0.0179626 0)
(4.80213e-10 -0.0173097 0)
(5.27816e-10 -0.016202 0)
(4.94952e-10 -0.0144514 0)
(3.73666e-10 -0.0118472 0)
(2.06916e-10 -0.00816536 0)
(3.0007e-11 -0.00317123 0)
(-3.8474e-10 -0.00317123 0)
(-1.27446e-09 -0.00816536 0)
(-1.34814e-09 -0.0118472 0)
(-1.28505e-09 -0.0144514 0)
(-1.14113e-09 -0.016202 0)
(-9.54631e-10 -0.0173097 0)
(-7.48102e-10 -0.0179626 0)
(-5.37594e-10 -0.0183162 0)
(-3.33482e-10 -0.0184874 0)
(-1.40751e-10 -0.0185539 0)
(3.88677e-11 -0.0185539 0)
(2.0566e-10 -0.0184874 0)
(3.63379e-10 -0.0183162 0)
(5.19909e-10 -0.0179626 0)
(6.72145e-10 -0.0173097 0)
(7.93908e-10 -0.016202 0)
(8.45152e-10 -0.0144514 0)
(8.07839e-10 -0.0118472 0)
(7.04974e-10 -0.00816536 0)
(2.06455e-10 -0.00317123 0)
(-4.6999e-10 -0.00317123 0)
(-1.52149e-09 -0.00816536 0)
(-1.57808e-09 -0.0118472 0)
(-1.48808e-09 -0.0144514 0)
(-1.31096e-09 -0.016202 0)
(-1.08749e-09 -0.0173097 0)
(-8.44018e-10 -0.0179626 0)
(-6.00315e-10 -0.0183162 0)
(-3.69637e-10 -0.0184874 0)
(-1.557e-10 -0.0185539 0)
(4.40535e-11 -0.0185539 0)
(2.34842e-10 -0.0184874 0)
(4.25307e-10 -0.0183162 0)
(6.25597e-10 -0.0179626 0)
(8.32013e-10 -0.0173097 0)
(1.0191e-09 -0.016202 0)
(1.14804e-09 -0.0144514 0)
(1.19099e-09 -0.0118472 0)
(1.14577e-09 -0.00816536 0)
(3.58986e-10 -0.00317123 0)
(-4.77117e-10 -0.00317123 0)
(-1.55024e-09 -0.00816536 0)
(-1.60789e-09 -0.0118472 0)
(-1.50955e-09 -0.0144514 0)
(-1.32081e-09 -0.016202 0)
(-1.08608e-09 -0.0173097 0)
(-8.36312e-10 -0.0179626 0)
(-5.91831e-10 -0.0183162 0)
(-3.6438e-10 -0.0184874 0)
(-1.54339e-10 -0.0185539 0)
(4.49049e-11 -0.0185539 0)
(2.42193e-10 -0.0184874 0)
(4.48897e-10 -0.0183162 0)
(6.74898e-10 -0.0179626 0)
(9.15651e-10 -0.0173097 0)
(1.14712e-09 -0.016202 0)
(1.33294e-09 -0.0144514 0)
(1.43663e-09 -0.0118472 0)
(1.42245e-09 -0.00816536 0)
(4.47646e-10 -0.00317123 0)
(-4.00118e-10 -0.00317123 0)
(-1.3417e-09 -0.00816536 0)
(-1.42066e-09 -0.0118472 0)
(-1.34307e-09 -0.0144514 0)
(-1.17668e-09 -0.016202 0)
(-9.68413e-10 -0.0173097 0)
(-7.51442e-10 -0.0179626 0)
(-5.41619e-10 -0.0183162 0)
(-3.45078e-10 -0.0184874 0)
(-1.59148e-10 -0.0185539 0)
(2.35979e-11 -0.0185539 0)
(2.12195e-10 -0.0184874 0)
(4.17661e-10 -0.0183162 0)
(6.47731e-10 -0.0179626 0)
(8.98217e-10 -0.0173097 0)
(1.14921e-09 -0.016202 0)
(1.36885e-09 -0.0144514 0)
(1.51267e-09 -0.0118472 0)
(1.50687e-09 -0.00816536 0)
(4.67366e-10 -0.00317122 0)
(-2.65367e-10 -0.00317123 0)
(-9.50761e-10 -0.00816536 0)
(-1.05476e-09 -0.0118472 0)
(-1.02503e-09 -0.0144514 0)
(-9.18023e-10 -0.016202 0)
(-7.76563e-10 -0.0173097 0)
(-6.27515e-10 -0.0179626 0)
(-4.78815e-10 -0.0183162 0)
(-3.30735e-10 -0.0184874 0)
(-1.8089e-10 -0.0185539 0)
(-2.55353e-11 -0.0185539 0)
(1.41135e-10 -0.0184874 0)
(3.27348e-10 -0.0183162 0)
(5.3806e-10 -0.0179626 0)
(7.71202e-10 -0.0173097 0)
(1.01444e-09 -0.016202 0)
(1.24301e-09 -0.0144514 0)
(1.40461e-09 -0.0118472 0)
(1.39398e-09 -0.00816536 0)
(4.23448e-10 -0.00317122 0)
(-1.14611e-10 -0.00317122 0)
(-4.80246e-10 -0.00816536 0)
(-5.9981e-10 -0.0118472 0)