/*--------------------------------*- C++ -*----------------------------------*\
| =========                 |                                                 |
| \\      /  F ield         | OpenFOAM: The Open Source CFD Toolbox           |
|  \\    /   O peration     | Version:  5.x                                   |
|   \\  /    A nd           | Web:      www.OpenFOAM.org                      |
|    \\/     M anipulation  |                                                 |
\*---------------------------------------------------------------------------*/
FoamFile
{
    version     2.0;
    format      ascii;
    class       surfaceScalarField;
    location    "0.15";
    object      alphaPhi10;
}
// * * * * * * * * * * * * * * * * * * * * * * * * * * * * * * * * * * * * * //

dimensions      [0 3 -1 0 0 0 0];

internalField   nonuniform List<scalar> 
4432
(
4.34612e-06
-4.34611e-06
1.1163e-05
-6.81686e-06
1.79107e-05
-6.74766e-06
2.43212e-05
-6.41051e-06
3.0677e-05
-6.35591e-06
3.7189e-05
-6.51195e-06
4.39585e-05
-6.76948e-06
5.10244e-05
-7.06596e-06
5.84009e-05
-7.37646e-06
6.60861e-05
-7.68519e-06
7.40562e-05
-7.97006e-06
8.22544e-05
-8.19821e-06
9.05536e-05
-8.29928e-06
9.87045e-05
-8.15086e-06
0.000106306
-7.60156e-06
0.000112772
-6.46587e-06
0.000117084
-4.31198e-06
0.000117082
2.22922e-09
0.000108157
8.92434e-06
8.42304e-05
2.38606e-05
4.47005e-05
3.9534e-05
3.63725e-06
4.10632e-05
2.74851e-06
4.3799e-06
-8.72602e-06
1.11787e-05
-1.36157e-05
1.79284e-05
-1.34973e-05
2.43507e-05
-1.28328e-05
3.07138e-05
-1.2719e-05
3.72333e-05
-1.30316e-05
4.40118e-05
-1.35479e-05
5.10878e-05
-1.4142e-05
5.84777e-05
-1.47664e-05
6.61809e-05
-1.53884e-05
7.41725e-05
-1.59617e-05
8.24025e-05
-1.64282e-05
9.07641e-05
-1.66608e-05
9.90353e-05
-1.64221e-05
0.000106839
-1.54057e-05
0.000113596
-1.32221e-05
0.000118491
-9.20775e-06
0.00012074
-2.24676e-06
0.000119731
9.93381e-06
0.000112139
3.14137e-05
8.8979e-05
6.27114e-05
4.46057e-05
8.54355e-05
4.08827e-05
4.4037e-06
-1.31297e-05
1.11605e-05
-2.03725e-05
1.78663e-05
-2.02031e-05
2.42594e-05
-1.92259e-05
3.06004e-05
-1.906e-05
3.71029e-05
-1.95341e-05
4.38678e-05
-2.03128e-05
5.09334e-05
-2.12076e-05
5.8319e-05
-2.2152e-05
6.60276e-05
-2.30969e-05
7.40405e-05
-2.39747e-05
8.23211e-05
-2.47088e-05
9.07831e-05
-2.51228e-05
9.92368e-05
-2.48758e-05
0.000107355
-2.35239e-05
0.000114633
-2.05006e-05
0.000120301
-1.48754e-05
0.000122986
-4.93127e-06
0.000120935
1.19842e-05
0.000113046
3.93029e-05
9.65851e-05
7.9123e-05
5.9323e-05
0.000122697
9.67319e-05
4.43377e-06
-1.75635e-05
1.11416e-05
-2.70803e-05
1.77832e-05
-2.68447e-05
2.41292e-05
-2.55719e-05
3.0439e-05
-2.53698e-05
3.69202e-05
-2.60153e-05
4.36693e-05
-2.70618e-05
5.07244e-05
-2.82628e-05
5.81091e-05
-2.95366e-05
6.58322e-05
-3.082e-05
7.38872e-05
-3.20297e-05
8.22552e-05
-3.30768e-05
9.08723e-05
-3.37399e-05
9.95905e-05
-3.3594e-05
0.000108163
-3.20963e-05
0.000116181
-2.85182e-05
0.000122901
-2.15962e-05
0.000127101
-9.13079e-06
0.000126632
1.24531e-05
0.000118373
4.75615e-05
9.96633e-05
9.77536e-05
6.33253e-05
0.000159031
0.000164621
4.4705e-06
-2.2034e-05
1.11201e-05
-3.37299e-05
1.76787e-05
-3.34033e-05
2.3962e-05
-3.18552e-05
3.02329e-05
-3.16406e-05
3.66894e-05
-3.24719e-05
4.34211e-05
-3.37936e-05
5.04661e-05
-3.53078e-05
5.78532e-05
-3.69237e-05
6.5599e-05
-3.85658e-05
7.3713e-05
-4.01437e-05
8.21975e-05
-4.15613e-05
9.10092e-05
-4.25516e-05
0.000100054
-4.26392e-05
0.0001092
-4.12414e-05
0.000118144
-3.74629e-05
0.000126207
-2.96593e-05
0.000132293
-1.52165e-05
0.000134665
1.00813e-05
0.000129354
5.28724e-05
0.000108611
0.000118446
6.9319e-05
0.000198278
0.000239871
4.51831e-06
-2.65523e-05
1.10966e-05
-4.03082e-05
1.75521e-05
-3.98588e-05
2.37588e-05
-3.80619e-05
2.9984e-05
-3.78658e-05
3.64119e-05
-3.88998e-05
4.31224e-05
-4.05041e-05
5.01533e-05
-4.23387e-05
5.75394e-05
-4.43098e-05
6.53068e-05
-4.63331e-05
7.34845e-05
-4.83215e-05
8.20963e-05
-5.0173e-05
9.11176e-05
-5.1573e-05
0.000100518
-5.20397e-05
0.000110298
-5.10214e-05
0.000120278
-4.74426e-05
0.00012987
-3.9251e-05
0.000138318
-2.36654e-05
0.00014478
3.61927e-06
0.000145276
5.18315e-05
0.000124766
0.000138962
7.97597e-05
0.000243159
0.000319631
4.57861e-06
-3.11309e-05
1.10643e-05
-4.67939e-05
1.73951e-05
-4.61897e-05
2.3512e-05
-4.41788e-05
2.96829e-05
-4.40366e-05
3.60731e-05
-4.529e-05
4.27519e-05
-4.71829e-05
4.97574e-05
-4.93442e-05
5.7131e-05
-5.16834e-05
6.49095e-05
-5.41116e-05
7.3143e-05
-5.6555e-05
8.18753e-05
-5.89054e-05
9.11082e-05
-6.08059e-05
0.000100884
-6.18156e-05
0.000111328
-6.14656e-05
0.000122392
-5.85063e-05
0.000133658
-5.05165e-05
0.00014495
-3.49585e-05
0.000156685
-8.11527e-06
0.000162984
4.11985e-05
0.000141969
0.000146755
9.00111e-05
0.000294642
0.000408518
4.64366e-06
-3.57746e-05
1.1007e-05
-5.31573e-05
1.71988e-05
-5.23815e-05
2.32147e-05
-5.01947e-05
2.93187e-05
-5.01406e-05
3.56574e-05
-5.16288e-05
4.22893e-05
-5.38147e-05
4.9254e-05
-5.6309e-05
5.66003e-05
-5.90297e-05
6.43766e-05
-6.18879e-05
7.26524e-05
-6.48308e-05
8.14884e-05
-6.77414e-05
9.09268e-05
-7.02443e-05
0.000101091
-7.198e-05
0.000112189
-7.25629e-05
0.00012432
-7.06381e-05
0.000137394
-6.35908e-05
0.000151522
-4.90939e-05
0.000167117
-2.37397e-05
0.000159595
2.2737e-05
0.000119546
8.33132e-05
8.50918e-05
0.000275684
0.00049113
-1.3879e-24
1.19597e-24
-1.54839e-24
7.1049e-25
-2.66387e-25
1.50921e-25
-7.21071e-27
-3.40336e-27
-1.01408e-28
-8.83829e-28
-2.66251e-30
-2.22767e-29
-8.83136e-32
-7.3684e-31
-2.40603e-33
-2.84453e-32
-5.31301e-35
-9.01399e-34
-1.01327e-36
-2.27244e-35
-1.65744e-38
-4.81264e-37
-2.26159e-40
-8.59699e-39
-2.51908e-42
-1.2661e-40
-2.1628e-44
-1.57854e-42
-1.40317e-46
-1.42812e-44
-5.98508e-49
-1.08895e-46
-1.3915e-51
-5.3799e-49
-4.89505e-55
-1.36541e-51
-4.07614e-55
-2.47721e-22
4.84303e-22
-2.56751e-22
4.24531e-22
-3.85008e-23
8.02306e-23
-1.03716e-24
-1.46098e-24
-1.67809e-26
-2.32053e-25
-3.61246e-28
-6.3087e-27
-9.04746e-30
-1.70322e-28
-2.09944e-31
-4.77878e-30
-4.19269e-33
-1.21919e-31
-7.30339e-35
-2.68649e-33
-1.08644e-36
-5.15667e-35
-1.32981e-38
-8.46117e-37
-1.28637e-40
-1.15156e-38
-9.43646e-43
-1.28047e-40
-4.74757e-45
-1.05082e-42
-1.45671e-47
-6.08469e-45
-1.76134e-50
-2.14052e-47
-1.44652e-55
-3.49775e-50
-5.6669e-55
-2.14125e-20
3.82932e-20
-2.46024e-20
4.97594e-20
-3.64586e-21
1.04358e-20
-8.47963e-23
-7.10207e-22
-1.31367e-24
-4.19567e-23
-2.34939e-26
-8.55061e-25
-4.47734e-28
-1.66174e-26
-8.41452e-30
-3.53445e-28
-1.46679e-31
-7.1861e-30
-2.30734e-33
-1.3572e-31
-3.15395e-35
-2.32179e-33
-3.5865e-37
-3.46281e-35
-3.23083e-39
-4.29372e-37
-2.1595e-41
-4.20634e-39
-9.50917e-44
-3.07903e-41
-2.38732e-46
-1.53903e-43
-2.1139e-49
-4.39697e-46
-1.95373e-55
-4.92436e-49
-1.15363e-54
-1.65227e-18
2.38549e-18
-3.55042e-18
5.99717e-18
-4.56556e-19
2.0179e-18
-5.20685e-21
-2.75563e-19
-6.66349e-23
-4.17341e-21
-9.9162e-25
-7.24509e-23
-1.52211e-26
-1.1523e-24
-2.38377e-28
-1.75957e-26
-3.61356e-30
-2.89395e-28
-5.06869e-32
-4.6333e-30
-6.25096e-34
-6.90977e-32
-6.39643e-36
-9.09555e-34
-5.16071e-38
-1.00293e-35
-3.14768e-40
-9.03722e-38
-1.23273e-42
-5.95264e-40
-2.71656e-45
-2.65271e-42
-1.58913e-48
-7.14726e-45
-4.05354e-55
-1.86694e-47
-9.10613e-54
-1.97876e-16
2.45019e-16
-2.29234e-16
4.78335e-16
-1.77592e-17
7.16566e-17
-1.37219e-19
-9.10862e-18
-1.76214e-21
-9.43424e-20
-2.74093e-23
-2.10243e-21
-3.57082e-25
-5.37309e-23
-4.91803e-27
-6.13861e-25
-6.5373e-29
-8.17672e-27
-8.08781e-31
-1.12464e-28
-8.86469e-33
-1.45736e-30
-8.31254e-35
-1.70077e-32
-6.07656e-37
-1.73879e-34
-3.25003e-39
-1.37332e-36
-1.16155e-41
-8.40761e-39
-2.26656e-44
-3.59151e-41
-7.67135e-48
-7.87996e-44
-8.75533e-55
-2.18153e-47
-5.21413e-54
-2.98371e-15
3.76537e-15
-1.73393e-15
3.22798e-15
-1.05058e-16
1.2761e-16
-1.1945e-18
-2.85945e-17
-1.72613e-20
-7.42626e-19
-3.50488e-22
-1.50852e-20
-4.89204e-24
-5.66944e-22
-6.53843e-26
-1.21929e-23
-8.18934e-28
-1.29761e-25
-9.34387e-30
-1.67757e-27
-9.44132e-32
-2.03906e-29
-8.07413e-34
-2.24279e-31
-5.43117e-36
-2.13082e-33
-2.60861e-38
-1.67924e-35
-8.67462e-41
-1.01112e-37
-1.08825e-43
-4.07824e-40
-3.17641e-48
-8.34793e-43
-1.31141e-55
-2.6283e-47
-3.57993e-53
-4.84509e-15
1.163e-14
-1.70969e-15
4.02374e-15
-1.63514e-16
-1.11829e-17
-5.38862e-18
-1.73217e-17
-7.02813e-20
-4.60483e-18
-1.31905e-21
-4.84315e-20
-2.93002e-23
-6.1868e-22
-4.8552e-25
-2.78859e-23
-6.47261e-27
-6.60208e-25
-7.4457e-29
-1.11357e-26
-7.36116e-31
-1.51694e-28
-5.79649e-33
-1.71934e-30
-3.60967e-35
-1.55527e-32
-1.66162e-37
-1.15103e-34
-3.5919e-40
-6.71578e-37
-1.36228e-43
-2.56736e-39
3.55743e-46
-4.59989e-42
1.47779e-51
-9.11654e-47
-1.94574e-51
-1.03255e-15
1.01817e-14
-3.88554e-16
1.19597e-15
-5.51552e-17
-3.49676e-17
-1.45219e-17
-1.22147e-17
-2.6627e-19
-1.29551e-17
-2.42319e-21
-4.32824e-19
-9.11179e-23
-2.56228e-21
-1.98221e-24
3.45807e-22
-3.23755e-26
2.40439e-24
-4.10016e-28
1.25621e-27
-4.13607e-30
-3.84382e-28
-3.16557e-32
-8.75458e-30
-1.73413e-34
-1.05076e-31
-5.08571e-37
-7.48501e-34
3.12285e-40
-2.29138e-36
7.64825e-42
1.2816e-38
7.71251e-45
9.52175e-41
3.7861e-48
4.33551e-44
3.83973e-48
9.92684e-06
-4.57014e-05
2.31628e-05
-6.63932e-05
3.57731e-05
-6.49917e-05
4.8148e-05
-6.25696e-05
6.08532e-05
-6.28458e-05
7.40976e-05
-6.48732e-05
8.79742e-05
-6.76913e-05
0.000102577
-7.09117e-05
0.000118035
-7.44878e-05
0.000134489
-7.83419e-05
0.000152134
-8.24761e-05
0.000171146
-8.67528e-05
0.000191767
-9.08658e-05
0.000214454
-9.46666e-05
0.000239623
-9.77326e-05
0.000267881
-9.8896e-05
0.000300401
-9.61256e-05
0.000330295
-7.92588e-05
0.000266369
-3.32481e-05
8.74755e-05
4.66837e-06
5.56339e-05
9.44118e-06
0.000106667
5.28134e-05
0.000468249
0.000109983
1.00363e-05
-5.57377e-05
2.25795e-05
-7.89365e-05
3.44397e-05
-7.68518e-05
4.62431e-05
-7.4373e-05
5.84987e-05
-7.51014e-05
7.13343e-05
-7.77088e-05
8.48117e-05
-8.11687e-05
9.90386e-05
-8.51387e-05
0.000114178
-8.96268e-05
0.000130411
-9.45752e-05
0.000147979
-0.000100044
0.000167122
-0.000105896
0.000188249
-0.000111993
0.000211869
-0.000118287
0.00023837
-0.000124233
0.000267864
-0.000128395
0.000284175
-0.000112675
0.000155502
-5.24559e-05
7.71785e-06
-6.80892e-06
1.03069e-05
6.1934e-08
1.57516e-05
2.23845e-06
4.65304e-05
1.79715e-05
0.00031667
0.000116027
1.00558e-05
-6.57935e-05
2.17727e-05
-9.06535e-05
3.27774e-05
-8.78565e-05
4.39334e-05
-8.5529e-05
5.56366e-05
-8.68046e-05
6.7925e-05
-8.99972e-05
8.08442e-05
-9.40879e-05
9.45185e-05
-9.8813e-05
0.000109139
-0.000104247
0.000124904
-0.000110341
0.000142075
-0.000117215
0.000160981
-0.000124802
0.000182035
-0.000133046
0.000205423
-0.000141675
0.000231682
-0.000150492
0.000246157
-0.000142948
0.000119305
-7.90458e-05
8.51576e-06
-9.3666e-06
1.54714e-06
-6.07018e-07
1.3717e-06
2.08879e-08
2.9132e-06
3.43154e-07
1.66808e-05
3.18013e-06
4.438e-05
8.61457e-05
9.94795e-06
-7.57414e-05
2.0717e-05
-0.000101423
3.08098e-05
-9.79493e-05
4.12503e-05
-9.59695e-05
5.22883e-05
-9.78425e-05
6.3884e-05
-0.000101593
7.60808e-05
-0.000106285
8.90189e-05
-0.000111751
0.000102908
-0.000118136
0.000117935
-0.000125368
0.000134393
-0.000133673
0.000152684
-0.000143094
0.000172881
-0.000153242
0.000194926
-0.000163721
0.000215869
-0.000171441
0.000136927
-0.000128388
9.64923e-06
-1.52486e-05
7.64089e-07
-1.23851e-06
9.5335e-08
2.61836e-09
9.10344e-08
2.80548e-09
3.2132e-07
4.59307e-08
2.40767e-06
6.88367e-07
8.35199e-06
3.74258e-05
9.70268e-06
-8.54441e-05
1.94143e-05
-0.000111134
2.85564e-05
-0.000107091
3.82121e-05
-0.000105625
4.84649e-05
-0.000108095
5.92193e-05
-0.000112347
7.05259e-05
-0.000117591
8.25384e-05
-0.000123764
9.54731e-05
-0.000131071
0.000109486
-0.000139381
0.000124982
-0.000149168
0.000142249
-0.000160361
0.000160806
-0.000171799
0.000180489
-0.000183404
0.000166332
-0.000157346
1.5103e-05
-3.2094e-05
1.25373e-06
-1.93944e-06
5.21929e-09
-4.87655e-08
2.20705e-09
7.5136e-10
2.19939e-09
6.48861e-10
3.21379e-08
4.58799e-09
5.84522e-07
6.99573e-08
1.61896e-06
7.05376e-06
9.3159e-06
-9.476e-05
1.78803e-05
-0.000119699
2.60459e-05
-0.000115257
3.48448e-05
-0.000114424
4.41917e-05
-0.000117442
5.39611e-05
-0.000122117
6.42156e-05
-0.000127846
7.51177e-05
-0.000134666
8.68723e-05
-0.000142826
9.96243e-05
-0.000152133
0.000113944
-0.000163488
0.000129657
-0.000176074
0.000146319
-0.000188459
0.000155202
-0.000192282
3.52541e-05
-9.79425e-05
1.86133e-06
-4.3604e-06
5.51364e-08
-2.11192e-07
-2.82284e-10
2.24687e-09
-4.32486e-10
4.84461e-10
-3.04392e-10
1.35194e-10
1.82917e-10
1.07466e-09
7.47986e-08
1.96738e-08
2.06755e-07
1.44233e-06
8.78018e-06
-0.00010354
1.61409e-05
-0.000127059
2.33168e-05
-0.000122433
3.1187e-05
-0.000122294
3.95154e-05
-0.000125771
4.81719e-05
-0.000130773
5.72308e-05
-0.000136905
6.68566e-05
-0.000144291
7.7217e-05
-0.000153186
8.84968e-05
-0.000163412
0.000101218
-0.000176209
0.000114597
-0.000189452
0.00012902
-0.000202876
9.90838e-05
-0.000173203
4.02209e-06
-1.61093e-05
2.1913e-07
-6.69273e-07
-1.49646e-09
2.23281e-09
-4.96289e-10
8.24678e-10
-1.08377e-10
5.29681e-11
-6.90736e-11
2.36335e-11
2.54978e-10
2.66893e-10
1.49382e-09
5.77343e-09
2.87589e-08
1.58055e-07
8.10741e-06
-0.000111648
1.42412e-05
-0.000133193
2.04277e-05
-0.00012862
2.73071e-05
-0.000129173
3.45289e-05
-0.000132992
4.19758e-05
-0.00013822
4.97261e-05
-0.000144655
5.79212e-05
-0.000152486
6.66496e-05
-0.000161914
7.61327e-05
-0.000172895
8.63122e-05
-0.000186387
9.65998e-05
-0.000199734
0.000104924
-0.000211146
1.41812e-05
-8.44978e-05
6.04243e-07
-2.1776e-06
-8.35432e-10
-6.55276e-08
-7.26461e-10
1.54014e-09
-5.7985e-11
9.04085e-11
-1.37666e-11
4.91833e-12
-5.64574e-12
3.32984e-12
9.58583e-11
3.7069e-11
4.6075e-10
2.75482e-10
4.23123e-09
1.5755e-08
7.33576e-06
-0.000118983
1.22632e-05
-0.00013812
1.74823e-05
-0.000133838
2.33379e-05
-0.000135029
2.94046e-05
-0.000139059
3.5577e-05
-0.000144392
4.1905e-05
-0.000150982
4.84361e-05
-0.000159016
5.50897e-05
-0.000168564
6.19644e-05
-0.000179762
6.82212e-05
-0.000192628
7.53691e-05
-0.000206825
6.47949e-05
-0.00020605
1.77562e-06
-2.10941e-05
6.36329e-08
-4.73882e-07
-1.38456e-09
-3.61833e-10
-8.61433e-11
1.88726e-10
-5.0613e-12
6.94865e-12
-1.15813e-12
6.22251e-13
7.31368e-14
4.12205e-13
1.5236e-11
3.73896e-12
3.44491e-11
2.23604e-11
5.25041e-10
2.29221e-09
6.52796e-06
-0.000125511
1.02957e-05
-0.000141886
1.45801e-05
-0.000138121
1.93953e-05
-0.000139842
2.42477e-05
-0.000143908
2.90156e-05
-0.000149156
3.36546e-05
-0.000155616
3.80449e-05
-0.000163393
4.188e-05
-0.000172367
4.51203e-05
-0.000182932
4.71705e-05
-0.000194536
4.94803e-05
-0.000208655
1.60017e-05
-0.00015279
3.54186e-07
-5.24415e-06
6.51597e-10
-1.21433e-07
-1.57598e-10
4.5929e-10
-5.20289e-12
3.21593e-11
-2.88436e-13
1.37558e-12
-9.04739e-14
2.78418e-13
-8.45652e-16
7.67873e-14
7.02667e-13
3.55421e-13
1.62105e-12
4.80466e-12
6.70104e-11
3.04325e-10
5.70417e-06
-0.000131215
8.28057e-06
-0.000144442
1.15964e-05
-0.000141414
1.52697e-05
-0.000143488
1.87096e-05
-0.000147314
2.1754e-05
-0.000152157
2.42408e-05
-0.000158043
2.60363e-05
-0.000165051
2.70945e-05
-0.000173108
2.82181e-05
-0.000183414
3.09271e-05
-0.000185957
3.09789e-05
-0.000147662
1.29729e-07
-5.42131e-05
9.39082e-09
-5.4478e-06
3.21126e-10
-1.14389e-07
-4.60404e-12
7.85914e-10
-5.43503e-14
2.72587e-11
-1.30802e-14
1.18194e-12
-9.09293e-15
1.62478e-13
-1.71052e-15
8.9166e-14
9.42672e-15
3.7851e-14
1.90876e-12
7.08038e-13
7.75578e-12
4.09364e-11
4.70628e-06
-0.000135922
5.87803e-06
-0.000145379
8.07197e-06
-0.000143349
1.03865e-05
-0.0001455
1.22559e-05
-0.000148813
1.3572e-05
-0.000153008
1.43603e-05
-0.000153773
1.47468e-05
-0.000139984
1.53857e-05
-0.000114492
1.55814e-05
-7.71828e-05
1.36309e-05
-1.91384e-05
5.96844e-06
-1.36772e-06
1.71287e-07
-1.05559e-07
-1.60085e-07
-6.27708e-06
7.60873e-09
-7.52861e-07
9.58293e-10
7.14415e-09
1.57944e-11
9.7246e-10
4.08444e-14
1.69209e-11
7.50271e-16
1.41468e-13
-2.47472e-19
7.12596e-14
8.52273e-15
3.64265e-14
2.95498e-13
8.20701e-14
7.63401e-13
4.70647e-12
3.13399e-06
-8.69034e-05
2.7821e-06
-7.957e-05
3.75345e-06
-7.62616e-05
4.57341e-06
-6.89969e-05
5.03873e-06
-5.90754e-05
5.27208e-06
-4.70733e-05
5.51683e-06
-2.54269e-05
5.31252e-06
-6.18764e-07
4.57087e-06
-2.46915e-08
6.43614e-06
-1.46401e-09
1.47889e-06
-6.07395e-11
1.13284e-07
-1.59809e-09
8.87391e-09
-3.94827e-10
6.20465e-07
-3.16333e-06
4.75131e-08
-1.60439e-06
9.0614e-09
4.36023e-08
2.65163e-10
9.67541e-09
1.91728e-12
2.77363e-10
-2.88491e-14
2.09351e-12
4.26269e-16
2.64654e-14
1.20166e-15
1.88882e-14
2.34239e-14
1.44304e-14
8.3071e-14
4.11441e-13
5.31989e-07
3.43491e-23
2.84253e-07
2.36071e-22
4.63622e-07
6.66561e-23
5.60755e-07
3.04691e-22
5.92867e-07
-1.08473e-19
8.21246e-07
-9.91186e-18
6.44965e-07
-4.67486e-16
2.6201e-08
-1.12907e-14
1.50999e-09
-4.62496e-13
5.82089e-11
-1.39082e-11
3.09553e-11
-4.84659e-11
1.59529e-10
-1.5566e-09
1.63979e-09
-1.36123e-09
2.68451e-07
-1.64111e-09
6.17363e-07
-1.42927e-06
1.59201e-08
9.92642e-08
3.83336e-10
2.48892e-08
1.88706e-12
6.56467e-10
-1.95927e-14
4.00807e-12
-1.36982e-16
1.76687e-14
9.1097e-18
5.1147e-15
8.96385e-16
3.29258e-15
9.3949e-15
2.34295e-14
-7.10107e-25
1.15701e-22
-9.28835e-24
7.85562e-22
-4.80739e-24
2.04731e-22
-3.52465e-23
2.5857e-22
1.82601e-21
-1.10334e-19
2.44283e-19
-1.0169e-17
1.5405e-17
-4.83923e-16
5.0228e-16
-1.18316e-14
2.5719e-14
-4.885e-13
2.15563e-12
-1.60798e-11
1.11021e-10
-1.59009e-10
7.70025e-10
-2.26111e-09
1.50772e-09
-1.74069e-09
2.88545e-09
-2.81486e-09
3.42409e-07
-1.24345e-06
-7.08315e-09
1.29411e-07
-4.22485e-10
1.82501e-08
-2.8315e-12
1.67775e-10
-2.18981e-14
1.09124e-12
-2.75051e-16
1.76076e-15
-1.05322e-16
1.0775e-15
-6.1134e-17
4.90996e-16
2.40774e-15
8.83891e-16
-2.23637e-24
1.36327e-22
-3.40046e-23
9.28234e-22
-1.44707e-23
1.26918e-22
-2.5959e-23
-5.33283e-21
1.91299e-20
-2.51686e-19
2.36518e-18
-2.60016e-17
1.43812e-16
-1.23141e-15
1.39779e-14
-3.02588e-14
6.76062e-13
-1.46583e-12
2.35478e-11
-5.00634e-11
4.56038e-10
-1.07832e-09
3.13139e-09
-1.08899e-08
9.46094e-09
-9.21125e-09
3.61608e-08
-2.9788e-08
7.84497e-08
-3.83669e-07
-1.52068e-08
1.20759e-07
-1.39726e-10
3.19484e-09
-9.61639e-13
2.89443e-11
-1.68613e-15
1.53529e-13
-1.01599e-16
3.43038e-16
-3.55115e-17
1.88457e-16
-5.12522e-17
6.16973e-17
3.2321e-16
-8.16814e-17
-1.18805e-24
8.62821e-23
-1.81377e-23
5.89819e-22
-3.7166e-24
-1.91008e-22
3.21515e-22
-1.66314e-20
7.84664e-20
-2.23255e-18
6.82851e-18
-1.53585e-16
5.29587e-16
-4.60317e-15
4.92725e-14
-1.38964e-13
1.9167e-12
-4.9012e-12
5.76827e-11
-1.19846e-10
1.98004e-09
-4.78954e-09
1.38462e-09
-1.08131e-07
-3.07991e-10
-1.94116e-07
-2.4692e-08
-7.50766e-08
-1.2393e-07
-7.5764e-10
-2.77189e-09
5.95632e-08
-2.52297e-11
4.50072e-10
-1.37966e-13
3.7878e-12
-3.57298e-16
1.59756e-14
-3.31526e-17
1.87076e-17
-7.93775e-18
2.77602e-17
-1.10187e-17
7.46343e-18
2.73691e-17
-3.02078e-17
2.99949e-24
2.19742e-23
-1.8177e-24
1.50739e-22
-7.34799e-24
-4.12744e-22
-2.49123e-21
-6.28183e-20
-4.14806e-19
-6.34454e-18
-1.82831e-17
-3.26082e-16
4.20362e-15
-1.15904e-14
3.45238e-13
-5.51239e-13
1.32979e-11
-1.60817e-11
2.59276e-10
-3.64094e-10
3.15624e-10
-4.98054e-09
-1.25772e-07
-1.16008e-07
-1.43958e-07
-1.16474e-07
-1.33088e-07
-2.75908e-08
-5.57326e-08
2.50853e-08
-4.0333e-10
4.24111e-09
-3.42991e-12
5.01464e-11
-1.46264e-14
3.73592e-13
-2.27529e-17
1.33574e-15
-6.88904e-18
2.51145e-18
-1.37232e-18
4.20168e-18
-1.73534e-18
8.00458e-19
2.25053e-18
-4.73474e-18
2.64917e-24
8.43703e-26
-3.26056e-23
-8.41901e-24
-8.34343e-23
-7.75339e-22
-1.89987e-20
-8.76741e-20
-3.33625e-18
-6.97736e-18
5.60004e-18
-3.98893e-16
4.62734e-15
-1.68411e-14
-1.44556e-14
-5.28269e-13
-8.62067e-13
-2.34479e-11
2.55053e-11
-4.67786e-10
-3.48793e-09
-8.87877e-10
-1.11351e-07
-8.71033e-12
-2.06497e-07
-5.2731e-11
-2.91762e-08
-2.85159e-10
-4.10078e-09
1.48408e-10
-4.69557e-11
1.8802e-10
-3.45015e-13
3.55682e-12
-1.28777e-15
2.68353e-14
-1.82472e-18
5.23357e-17
-1.53171e-18
1.50298e-18
-1.91476e-19
1.40091e-18
-2.18287e-19
7.59136e-20
1.65633e-19
-5.47336e-19
-2.37503e-25
3.41894e-25
-2.81269e-24
-5.84383e-24
-1.7286e-22
-6.18372e-22
-2.69902e-20
-6.15668e-20
-2.94851e-18
-4.24882e-18
-1.71658e-16
-2.92023e-16
-6.7468e-15
-8.9067e-15
-4.5066e-13
-5.63052e-14
-8.6532e-11
-7.83443e-16
-1.77673e-10
-1.1077e-14
-7.44838e-13
-1.20357e-13
-9.07563e-12
-4.03727e-13
-5.92883e-11
-2.63528e-12
-3.4035e-10
-2.88307e-12
-1.87237e-10
3.3393e-13
-3.49312e-12
4.38071e-12
-2.60635e-14
8.73178e-14
-5.02636e-17
8.19668e-16
-1.18143e-18
1.03256e-18
-9.04695e-19
1.06032e-18
-2.25547e-20
8.2055e-19
-2.2839e-20
6.44497e-21
1.05913e-20
-5.10687e-20
-1.42144e-25
8.23696e-25
-3.17024e-23
2.57165e-23
-9.8676e-22
3.36686e-22
-6.49025e-20
2.34893e-21
-4.62852e-18
8.72827e-21
-8.80877e-16
1.23315e-20
-5.02958e-15
-2.08661e-19
-2.28168e-17
-4.36023e-18
-7.81789e-16
-2.91859e-17
-1.13644e-14
-4.56626e-16
-1.27428e-13
-5.06933e-15
-5.20931e-13
-1.99149e-14
-3.91628e-12
-1.14261e-13
-4.87252e-12
-2.245e-13
-4.49381e-12
-3.28372e-14
-8.66501e-14
9.12584e-14
-8.06694e-16
1.53402e-15
-9.52302e-19
1.22829e-17
-9.43091e-19
2.76253e-19
-7.23144e-19
6.94676e-19
-2.23704e-21
4.56072e-19
-2.04587e-21
4.52741e-22
5.85224e-22
-3.95791e-21
1.18067e-24
6.13226e-25
3.15396e-23
1.94455e-23
3.38633e-22
2.61998e-22
1.73997e-21
1.91173e-21
3.22668e-21
7.61556e-21
-6.65159e-21
1.15156e-20
-1.80813e-19
-3.44995e-20
-3.76693e-18
-7.89878e-19
-2.21996e-17
-1.10596e-17
-4.23235e-16
-6.03068e-17
-5.46809e-15
-1.01652e-16
-5.67886e-14
-1.1024e-16
-1.63106e-13
-1.27498e-16
-5.31613e-14
-3.61163e-16
-8.61906e-14
-9.30559e-17
-1.52946e-15
1.18207e-15
-1.23456e-17
2.5767e-17
-3.29726e-19
2.02278e-19
-5.1425e-19
1.22606e-19
-3.62828e-19
2.31119e-19
-1.72863e-22
1.19489e-19
-1.45335e-22
2.28137e-23
2.79682e-23
-2.58411e-22
1.01801e-24
2.16732e-25
2.79328e-23
6.97376e-24
3.13317e-22
9.59331e-23
1.72237e-21
7.16763e-22
3.40899e-21
2.87418e-21
-1.30002e-20
3.31359e-21
-3.03415e-20
-2.19156e-20
-1.34949e-18
-4.71716e-19
-2.79414e-17
-1.00104e-17
-1.04105e-16
-8.22866e-17
-1.16012e-16
-2.0342e-16
-1.22e-16
-1.73336e-16
-1.41917e-16
-1.02476e-16
-4.45505e-16
-2.03146e-17
-1.19091e-15
-1.02893e-18
-2.5588e-17
9.50683e-18
-2.59353e-19
4.37826e-19
-7.76115e-20
4.1129e-21
-1.09453e-19
1.4283e-20
-6.54734e-20
1.83691e-20
-9.15179e-24
6.74679e-21
-8.08364e-24
8.41885e-25
1.15574e-24
-1.43308e-23
4.00056e-25
-3.88857e-32
1.12013e-23
-8.80306e-30
1.28535e-22
-9.71244e-28
7.10363e-22
-7.01381e-26
1.06995e-21
-3.69863e-24
-1.05437e-20
-1.50759e-22
-2.50467e-20
-6.7559e-21
-9.08324e-19
-1.15357e-19
-2.73848e-17
-3.4503e-18
-1.72413e-16
-5.28894e-17
-3.29245e-16
-1.74428e-16
-3.17253e-16
-2.41613e-16
-1.38232e-16
-1.90377e-16
-2.96863e-17
-9.17803e-17
-1.04362e-17
-6.39096e-18
-4.55405e-19
2.04483e-20
-5.39025e-21
6.98242e-21
-6.16702e-21
1.02348e-22
-6.60296e-21
2.84641e-22
-3.16026e-21
3.3647e-22
-3.90469e-25
9.92748e-23
-3.56704e-25
2.66479e-26
4.12601e-26
-6.77954e-25
-3.86686e-32
-2.17118e-34
-8.79148e-30
-5.02466e-32
-9.74363e-28
-5.67302e-30
-7.06918e-26
-4.20686e-28
-3.74641e-24
-2.29089e-26
-1.53533e-22
-9.71616e-25
-6.89444e-21
-2.60086e-23
-1.27006e-19
-4.74551e-22
-6.70001e-18
-1.29169e-20
-1.10408e-16
-3.36457e-19
-3.41724e-16
-2.98844e-18
-4.34137e-16
-8.29494e-18
-3.60811e-16
-4.86766e-18
-1.27072e-16
-3.52442e-18
-5.09209e-19
-3.10463e-19
-9.14223e-20
1.40615e-21
-1.18029e-22
6.842e-21
-1.70688e-22
1.45224e-24
-1.84993e-22
4.19262e-24
-7.67327e-23
4.82963e-24
-1.42318e-26
1.91893e-24
-1.35159e-26
7.49959e-28
1.27092e-27
-2.74448e-26
-2.16147e-34
-9.70644e-37
-5.03211e-32
-2.30729e-34
-5.70687e-30
-2.7139e-32
-4.25091e-28
-2.10622e-30
-2.32585e-26
-1.20547e-28
-9.91471e-25
-5.40252e-27
-2.6912e-23
-1.53913e-25
-5.04138e-22
-3.12926e-24
-1.91629e-20
-9.35618e-23
-5.84778e-19
-2.70738e-21
-4.34703e-18
-2.5026e-20
-1.05938e-17
-6.7263e-20
-8.64849e-18
-7.4967e-20
-2.05609e-18
-4.92765e-20
-2.42385e-19
-8.09595e-21
-8.06209e-20
-5.90074e-22
-2.68561e-24
4.01339e-21
-4.84761e-24
2.26234e-25
-4.24582e-24
9.36966e-26
-1.87116e-24
7.69988e-26
-4.42088e-28
4.07226e-26
-4.36591e-28
1.80941e-29
3.37713e-29
-9.5305e-28
-9.70518e-37
-1.26635e-40
-2.31683e-34
-3.18296e-38
-2.73683e-32
-3.96688e-36
-2.13334e-30
-3.2707e-34
-1.22661e-28
-1.99711e-32
-5.52402e-27
-9.60267e-31
-1.57189e-25
-2.56698e-29
-3.29867e-24
-6.49099e-28
-1.46487e-22
-1.84048e-26
-4.99646e-21
-5.16267e-25
-3.60128e-20
-1.41659e-23
-7.66105e-20
-1.51813e-22
-7.89661e-20
-4.73261e-22
-3.58166e-20
-5.57775e-22
-9.51646e-21
-3.42366e-22
-7.80015e-21
-3.92014e-23
-2.55574e-25
4.36885e-23
-1.69345e-25
2.90048e-26
-9.15554e-26
1.85116e-27
-3.98814e-26
1.03713e-27
-1.16142e-29
7.10567e-28
-1.19748e-29
3.70435e-31
7.75507e-31
-2.8453e-29
-1.2657e-40
-6.53654e-44
-3.19156e-38
-1.82655e-41
-3.9899e-36
-2.53136e-39
-3.30025e-34
-2.31986e-37
-2.02201e-32
-1.57548e-35
-9.75749e-31
-8.44173e-34
-2.60736e-29
-2.44324e-32
-6.75206e-28
-7.40691e-31
-1.92373e-26
-2.3084e-29
-8.34275e-25
-6.65713e-28
-3.18402e-23
-2.18098e-26
-2.94758e-22
-3.68034e-25
-7.51017e-22
-1.71536e-24
-8.07371e-22
-2.60974e-24
-4.0802e-22
-1.91122e-24
-2.68557e-23
-3.57868e-25
-3.35682e-25
5.01051e-29
-3.06979e-27
1.7536e-26
-1.43662e-27
1.56079e-29
-6.97055e-28
1.168e-29
-2.5782e-31
1.01223e-29
-2.79099e-31
6.4468e-33
1.54242e-32
-7.31892e-31
-6.15561e-44
-4.54531e-48
-1.73236e-41
-1.34346e-45
-2.41538e-39
-1.95607e-43
-2.22691e-37
-1.88697e-41
-1.52154e-35
-1.35466e-39
-8.20277e-34
-7.71367e-38
-2.52521e-32
-3.36041e-36
-7.6595e-31
-1.1283e-34
-2.38868e-29
-3.88647e-33
-9.01569e-28
-1.19358e-31
-5.12971e-26
-3.91086e-30
-8.16891e-25
-1.12913e-28
-2.90515e-24
-1.22078e-27
-3.69505e-24
-3.77506e-27
-2.27897e-24
-4.33286e-27
-7.98256e-26
-2.50164e-27
-7.32527e-26
-2.22478e-28
-4.84829e-29
2.31203e-27
-1.86377e-29
2.51799e-31
-9.93253e-30
1.07979e-31
-4.84116e-33
1.17451e-31
-5.53594e-33
9.56226e-35
2.66246e-34
-1.62593e-32
-4.54501e-48
-3.03762e-52
-1.34799e-45
-9.85597e-50
-1.96953e-43
-1.57513e-47
-1.90664e-41
-1.67009e-45
-1.37371e-39
-1.32038e-43
-7.85097e-38
-8.30309e-42
-3.43893e-36
-4.01572e-40
-1.16273e-34
-1.50519e-38
-4.00365e-33
-5.77841e-37
-1.24965e-31
-1.98823e-35
-7.3322e-30
-6.25428e-34
-2.9098e-28
-2.1096e-32
-2.71036e-27
-6.20488e-31
-6.87301e-27
-6.20175e-30
-7.37528e-27
-1.54889e-29
-3.94458e-27
-1.33884e-29
-1.22049e-27
-3.37848e-30
-1.43242e-30
6.8288e-31
-2.093e-31
1.05313e-32
-1.15012e-31
8.75034e-34
-7.70795e-35
1.12967e-33
-9.35872e-35
1.21213e-36
3.99872e-36
-3.12756e-34
-3.03718e-52
-4.38299e-56
-9.88615e-50
-1.5784e-53
-1.58499e-47
-2.79878e-51
-1.6859e-45
-3.29539e-49
-1.3372e-43
-2.89768e-47
-8.43662e-42
-2.0311e-45
-4.10008e-40
-1.09781e-43
-1.54463e-38
-4.62917e-42
-5.93624e-37
-2.00761e-40
-2.04954e-35
-7.81544e-39
-7.26565e-34
-2.75416e-37
-4.84245e-32
-1.00878e-35
-2.03317e-30
-3.79116e-34
-1.62513e-29
-5.77893e-33
-3.08743e-29
-2.00262e-32
-2.61674e-29
-2.09334e-32
-7.68653e-31
-7.7965e-33
-6.94609e-32
-1.13518e-35
-2.01173e-33
4.45691e-34
-1.1e-33
6.91639e-36
-1.04084e-36
9.47082e-36
-1.34961e-36
1.32383e-38
5.24454e-38
-5.22392e-36
-4.38298e-56
-1.77092e-61
-1.58278e-53
-7.16157e-59
-2.81456e-51
-1.42442e-56
-3.32336e-49
-1.88255e-54
-2.9306e-47
-1.86054e-52
-2.06e-45
-1.46849e-50
-1.10808e-43
-8.49585e-49
-4.73636e-42
-4.2768e-47
-2.05498e-40
-2.1071e-45
-8.02114e-39
-9.34013e-44
-2.85431e-37
-3.75565e-42
-1.94258e-35
-1.39926e-40
-1.27866e-33
-5.19358e-39
-1.62959e-32
-2.05898e-37
-3.91155e-32
-4.42334e-36
-3.60154e-32
-2.08494e-35
-1.08952e-33
-2.26525e-35
-1.04788e-33
-5.44445e-36
-1.92621e-35
1.83861e-36
-9.13852e-36
4.87028e-38
-1.21267e-38
6.66958e-38
-1.67185e-38
1.30515e-40
6.02862e-40
-7.60275e-38
-1.77066e-61
-2.55992e-65
-7.17409e-59
-1.18304e-62
-1.42952e-56
-2.68541e-60
-1.89281e-54
-4.0487e-58
-1.87427e-52
-4.56565e-56
-1.48223e-50
-4.11494e-54
-8.56465e-49
-2.67648e-52
-4.36308e-47
-1.60722e-50
-2.15259e-45
-9.07737e-49
-9.5644e-44
-4.62362e-47
-3.85693e-42
-2.14275e-45
-1.54094e-40
-9.14942e-44
-9.39183e-39
-3.82779e-42
-8.14817e-37
-1.77621e-40
-1.8e-35
-5.68229e-39
-6.10281e-35
-4.07489e-38
-5.893e-35
-5.93264e-38
-2.61332e-36
-2.38714e-38
-1.41611e-37
1.60978e-40
-6.32753e-38
2.90298e-40
-1.29227e-40
4.38053e-40
-1.82179e-40
1.2577e-42
6.10547e-42
-9.66776e-40
-2.50329e-65
-6.1906e-70
-1.16074e-62
-3.28248e-67
-2.6427e-60
-8.52099e-65
-3.99617e-58
-1.46957e-62
-4.51994e-56
-1.89841e-60
-4.08605e-54
-1.96373e-58
-2.71737e-52
-1.64782e-56
-1.63443e-50
-1.14467e-54
-9.2425e-49
-7.485e-53
-4.71687e-47
-4.42767e-51
-2.19042e-45
-2.38907e-49
-9.38453e-44
-1.19046e-47
-5.59529e-42
-5.61833e-46
-6.31387e-40
-2.97088e-44
-2.41561e-38
-1.38854e-42
-1.22755e-37
-1.67582e-41
-1.2007e-37
-3.77293e-41
-2.1184e-39
-2.25928e-41
-1.09097e-39
-8.21963e-44
-4.10042e-40
1.89285e-42
-1.29485e-42
9.21082e-43
-1.77908e-42
1.20757e-44
5.48907e-44
-1.07816e-41
-6.19059e-70
-1.2371e-75
-3.28867e-67
-7.66493e-73
-8.55387e-65
-2.32477e-70
-1.47813e-62
-4.68561e-68
-1.91319e-60
-7.07876e-66
-1.98286e-58
-8.57194e-64
-1.66765e-56
-8.43429e-62
-1.16135e-54
-6.88183e-60
-7.60123e-53
-5.28883e-58
-4.50376e-51
-3.68559e-56
-2.43416e-49
-2.34745e-54
-1.21508e-47
-1.38356e-52
-6.64013e-46
-7.62058e-51
-8.48485e-44
-4.00246e-49
-5.83434e-42
-2.20567e-47
-5.14798e-41
-1.28466e-45
-7.32902e-41
-2.34569e-44
-1.88954e-41
-6.26389e-44
-6.19099e-42
-1.91243e-44
-2.29695e-42
3.93088e-45
-1.302e-44
8.62622e-45
-1.63781e-44
1.19152e-46
4.42404e-46
-1.05886e-43
-1.23704e-75
-6.41341e-80
-7.67726e-73
-4.74247e-77
-2.33244e-70
-1.71713e-74
-4.7089e-68
-4.13238e-72
-7.12581e-66
-7.45879e-70
-8.64317e-64
-1.08003e-67
-8.52075e-62
-1.27166e-65
-6.97526e-60
-1.24377e-63
-5.36074e-58
-1.15065e-61
-3.74088e-56
-9.64254e-60
-2.38639e-54
-7.39778e-58
-1.4087e-52
-5.26134e-56
-7.77345e-51
-3.50341e-54
-4.641e-49
-2.2006e-52
-5.81593e-47
-1.41057e-50
-7.054e-45
-1.08198e-48
-1.08549e-43
-3.28918e-47
-1.92736e-43
-1.36046e-46
-1.76253e-44
-7.63239e-47
-1.17108e-44
7.83297e-48
-1.37267e-46
3.39692e-47
-1.30664e-46
1.11336e-48
3.24259e-48
-9.19804e-46
-6.41338e-80
-2.15803e-85
-4.74888e-77
-1.96903e-82
-1.72185e-74
-8.77665e-80
-4.14944e-72
-2.59913e-77
-7.49974e-70
-5.77513e-75
-1.08739e-67
-1.03014e-72
-1.28467e-65
-1.46764e-70
-1.25615e-63
-1.80618e-68