/*--------------------------------*- C++ -*----------------------------------*\
| =========                 |                                                 |
| \\      /  F ield         | OpenFOAM: The Open Source CFD Toolbox           |
|  \\    /   O peration     | Version:  5.x                                   |
|   \\  /    A nd           | Web:      www.OpenFOAM.org                      |
|    \\/     M anipulation  |                                                 |
\*---------------------------------------------------------------------------*/
FoamFile
{
    version     2.0;
    format      ascii;
    class       volScalarField;
    location    "0.15";
    object      alpha.water;
}
// * * * * * * * * * * * * * * * * * * * * * * * * * * * * * * * * * * * * * //

dimensions      [0 0 0 0 0 0 0];

internalField   nonuniform List<scalar> 
2268
(
1
1
1
1
1
1
1
1
1
1
1
1
1
1
1
1
1
1
1
0.999262
0.999307
1
0.650256
0.999999
1
1
1
1
1
1
1
1
1
1
1
1
1
1
1
1
1
1
0.999645
0.999743
0.999979
0.710716
1
1
1
1
1
1
1
1
1
1
1
1
1
1
1
1
1
1
1
1
0.999769
0.999954
0.72757
1
1
1
1
1
1
1
1
1
1
1
1
1
1
1
1
1
1
1
1
0.999762
0.99994
0.811017
1
1
1
1
1
1
1
1
1
1
1
1
1
1
1
1
1
1
1
1
0.999801
0.999919
0.977171
1
1
1
1
1
1
1
1
1
1
1
1
1
1
1
1
1
1
1
0.999258
0.99973
0.999825
1
1
1
1
1
1
1
1
1
1
1
1
1
1
1
1
1
1
1
1
0.988568
0.99613
0.999737
0.998355
1
1
1
1
1
1
1
1
1
1
1
1
1
1
1
1
0.999997
0.999983
0.999979
0.937371
0.82199
0.973132
0.998686
1.08337e-19
1.26025e-19
6.30662e-20
7.30489e-21
1.58089e-22
2.0099e-24
6.5684e-26
2.95368e-27
1.05788e-28
3.08809e-30
7.92799e-32
1.77253e-33
3.35421e-35
5.24823e-37
6.56609e-39
6.25511e-41
4.16237e-43
1.63646e-45
2.42799e-48
1.02775e-17
1.96755e-17
9.75483e-18
9.94067e-19
2.18471e-20
3.50795e-22
9.46874e-24
3.27767e-25
1.04313e-26
2.87593e-28
7.03959e-30
1.5082e-31
2.74197e-33
4.09967e-35
4.82801e-37
4.18094e-39
2.31716e-41
5.37471e-44
2.01796e-48
5.11429e-16
1.53901e-15
9.30571e-16
8.15288e-17
1.70415e-18
2.81832e-20
6.23297e-22
1.6085e-23
4.14225e-25
1.00064e-26
2.21778e-28
4.3666e-30
7.35453e-32
1.01711e-33
1.08961e-35
8.10143e-38
3.64399e-40
6.07839e-43
2.48634e-48
2.10059e-14
1.26255e-13
1.64993e-13
1.00179e-14
1.1395e-16
1.59781e-18
2.79956e-20
5.66159e-22
1.20482e-23
2.53019e-25
5.01456e-27
8.96675e-29
1.38103e-30
1.72963e-32
1.6865e-34
1.15843e-36
4.67057e-39
5.42526e-42
6.38302e-48
1.61353e-12
9.41685e-12
7.77524e-12
3.72546e-13
3.07203e-15
4.63431e-17
8.68594e-19
1.4285e-20
2.62679e-22
4.85981e-24
8.58276e-26
1.38058e-27
1.94427e-29
2.29235e-31
2.06686e-33
1.34051e-35
5.046e-38
3.96688e-41
2.18618e-47
2.10646e-11
1.15653e-10
3.55212e-11
1.9761e-12
2.54048e-14
4.59857e-16
1.21135e-17
2.17408e-19
3.79406e-21
6.60189e-23
1.0843e-24
1.6382e-26
2.18336e-28
2.37909e-30
2.09847e-32
1.33585e-34
4.28323e-37
4.14428e-41
9.64187e-48
8.70579e-11
1.41448e-10
4.96716e-11
2.74677e-12
1.08866e-13
1.7406e-15
4.30728e-17
1.31895e-18
2.99513e-20
5.62616e-22
9.51333e-24
1.44416e-25
1.87626e-27
2.08071e-29
1.8602e-31
1.13519e-33
3.62319e-36
5.85417e-41
3.64834e-47
1.81312e-11
2.27126e-11
2.05781e-12
4.46037e-13
3.6893e-13
4.28283e-15
3.32682e-18
1.80825e-18
1.16298e-19
2.91287e-21
5.75737e-23
9.51782e-25
1.27729e-26
1.41242e-28
1.26164e-30
7.83124e-33
2.26235e-35
2.38654e-40
4.45274e-47
1
1
1
1
1
1
1
1
1
1
1
1
1
1
1
0.999999
0.999967
0.999605
0.919825
0.554401
0.122159
0.287544
0.965434
1
1
1
1
1
1
1
1
1
1
1
1
1
1
1
0.999987
0.999408
0.800712
0.219492
0.00454673
0.00409805
0.0103145
0.8741
1
1
1
1
1
1
1
1
1
1
1
1
1
1
0.999997
0.999803
0.775137
0.128889
0.00258518
0.000526435
0.000760236
0.00263817
0.405856
1
1
1
1
1
1
1
1
1
1
1
1
1
1
0.999949
0.885147
0.17526
0.00258112
0.000254705
5.29923e-05
0.000137582
0.000747983
0.00262717
1
1
1
1
1
1
1
1
1
1
1
1
1
0.999996
0.999436
0.324828
0.00290062
0.000254668
2.04072e-05
6.26625e-06
2.66426e-05
0.000137329
0.000650021
1
1
1
1
1
1
1
1
1
1
1
1
0.999998
0.999967
0.60913
0.016875
0.000292879
1.88017e-05
2.36392e-06
9.72531e-07
7.14757e-06
4.55629e-05
0.000168089
1
1
1
1
1
1
1
1
1
1
0.999999
0.999998
0.999985
0.965494
0.165937
0.000751641
2.46928e-05
1.94692e-06
2.08142e-07
1.6167e-07
1.43926e-06
3.1592e-05
5.14011e-05
1
1
1
1
1
1
1
1
0.999999
0.999998
0.999995
0.999984
0.999858
0.467644
0.00274552
4.31469e-05
2.17651e-06
1.79204e-07
2.09281e-08
2.46561e-08
2.51776e-07
5.90546e-06
1.36729e-05
1
1
1
0.999999
0.999999
0.999999
0.999998
0.999996
0.999992
0.999979
0.999948
0.999858
0.99778
0.138939
0.000219908
2.61387e-06
2.00776e-07
1.99421e-08
2.6908e-09
3.74837e-09
3.26158e-08
3.26261e-07
2.07359e-06
1
0.999994
0.999994
0.999993
0.99999
0.999985
0.999977
0.99996
0.999914
0.999795
0.999539
0.998796
0.663573
0.0277084
1.37356e-05
2.25673e-07
2.00418e-08
2.55149e-09
1.06189e-09
9.8645e-10
4.33084e-09
2.7965e-08
2.50569e-07
1
0.999937
0.999931
0.999914
0.999885
0.999838
0.999763
0.999594
0.999167
0.998125
0.988243
0.915501
0.323661
0.0111002
5.33891e-06
1.86684e-08
1.93662e-09
9.8315e-10
8.67886e-10
5.61039e-10
7.3031e-10
3.6469e-09
3.22259e-08
1
0.999297
0.999211
0.999037
0.998743
0.998287
0.994364
0.970128
0.901917
0.747596
0.495485
0.23563
0.048751
0.0210987
0.000424461
1.39256e-06
1.28932e-08
-1.14656e-09
5.40974e-10
4.7013e-10
2.44437e-10
5.50158e-10
4.00674e-09
0.897686
0.853525
0.842247
0.804377
0.745271
0.660017
0.53895
0.376556
0.218327
0.0744949
1.54298e-07
5.93316e-07
1.3261e-06
0.0201632
0.00937234
1.64247e-05
5.12498e-07
1.71876e-09
2.18962e-10
1.954e-10
1.47687e-10
9.32826e-11
4.95951e-10
0.197055
0.148908
0.136674
0.104869
0.0670113
0.0285142
1.46038e-13
3.62231e-12
1.41797e-10
4.94835e-09
8.5818e-08
1.53359e-07
5.93316e-07
0.0024062
0.0107469
0.00196495
1.54732e-06
1.87992e-08
7.74872e-11
2.62119e-11
5.66923e-11
2.73478e-11
8.67599e-11
-2.41663e-19
-1.63025e-18
-4.55238e-19
-2.03205e-18
5.02087e-33
3.31223e-17
3.05571e-15
1.46022e-13
3.33814e-12
1.41239e-10
4.94835e-09
1.06416e-07
9.08047e-07
3.78788e-06
0.0106776
0.00306067
5.27201e-07
4.88788e-08
2.43154e-09
1.62609e-12
1.38732e-11
5.90752e-12
1.59816e-11
-7.97524e-19
-5.32348e-18
-1.3533e-18
-1.6498e-18
1.87527e-16
2.44111e-14
1.29368e-12
7.61351e-12
2.64604e-10
2.07902e-08
6.54915e-07
5.47167e-06
4.60414e-06
5.65016e-06
0.00680299
0.00251309
6.9125e-08
4.22497e-10
-1.21393e-11
3.30061e-13
2.74415e-12
8.59184e-13
3.57923e-12
-9.21881e-19
-6.1412e-18
-8.15733e-19
1.84059e-17
4.69811e-15
3.60736e-13
1.15005e-11
2.1178e-10
6.39249e-09
1.16749e-07
2.57661e-06
0.000289461
0.000673379
0.00044375
0.00203511
0.000955978
9.83726e-09
-2.00718e-10
1.38295e-13
1.32218e-14
4.57344e-13
1.13536e-13
4.42611e-13
-5.78424e-19
-3.85974e-18
4.49875e-19
1.38774e-16
1.62602e-14
8.35799e-13
1.67932e-11
3.46696e-10
8.33875e-09
3.35561e-08
6.60713e-07
0.000544761
0.00120064
0.00120138
0.00097599
1.27761e-07
-7.06745e-10
4.51786e-12
-1.20207e-12
1.39343e-14
6.64932e-14
1.40951e-14
3.91586e-14
-1.48084e-19
-9.9109e-19
1.15565e-18
1.77569e-16
2.07612e-14
6.68966e-13
2.87071e-12
7.19929e-11
9.76317e-09
2.9132e-07
5.43376e-07
0.000242852
0.000887039
0.000551551
5.93318e-07
1.43015e-08
1.0346e-10
-1.70416e-11
1.01148e-14
1.18532e-14
1.55757e-14
1.5967e-15
3.27615e-15
-5.79e-22
0
6.29019e-20
8.42581e-18
7.82079e-16
1.3459e-13
7.98858e-12
4.90277e-11
8.61084e-08
1.10337e-06
5.09393e-07
3.48027e-10
2.5778e-09
1.2984e-08
1.78329e-08
1.33039e-09
-9.08092e-12
-3.68671e-14
-6.88972e-15
1.05304e-14
9.51834e-15
1.72272e-16
2.41302e-16
-2.41609e-21
0
3.89867e-35
-4.4051e-32
2.83578e-16
1.04467e-12
3.67171e-11
6.74945e-11
2.36834e-14
4.66475e-13
3.62311e-12
3.80612e-11
2.31751e-09
1.82418e-08
5.10249e-10
1.43491e-09
9.56289e-13
6.75029e-15
3.74039e-15
8.8657e-15
6.58493e-15
1.667e-17
1.52989e-17
-6.05506e-21
-1.85436e-19
-2.39716e-18
-1.64142e-17
-5.95755e-17
-8.19541e-17
0
6.43386e-17
1.43304e-15
2.36834e-14
3.16472e-13
3.75681e-11
4.72197e-10
7.1783e-10
2.52687e-12
1.63142e-11
6.00754e-14
2.47531e-15
2.73281e-15
5.05757e-15
2.98356e-15
1.12863e-18
8.43604e-19
-4.72922e-21
-1.47436e-19
-1.97022e-18
-1.42106e-17
-5.58563e-17
-8.33565e-17
1.14612e-17
1.97163e-15
7.60242e-14
4.85077e-13
8.71709e-13
8.17665e-13
7.27407e-13
6.53179e-13
1.47718e-12
1.16327e-13
2.13888e-15
1.32692e-16
8.08362e-16
1.11342e-15
4.76635e-16
4.55816e-20
4.07006e-20
-1.76545e-21
-5.5961e-20
-7.66804e-19
-5.70034e-18
-2.27602e-17
-2.62051e-17
-1.15212e-26
1.36579e-15
7.04323e-14
7.41198e-13
2.08653e-12
2.77075e-12
1.92242e-12
6.4404e-13
1.42364e-13
2.7302e-15
8.26817e-17
1.02307e-17
5.31857e-17
5.78998e-17
1.50788e-17
1.30336e-21
1.72385e-21
0
0
0
-2.1984e-35
-1.2846e-29
-2.91686e-27
8.35974e-20
1.33072e-17
1.08052e-14
3.44063e-13
1.96786e-12
3.53057e-12
3.84624e-12
3.12068e-12
5.83021e-13
2.10625e-15
4.28093e-16
3.18257e-19
1.07011e-18
8.1292e-19
6.91708e-20
3.70856e-23
6.33666e-23
0
5.33182e-31
7.13557e-29
5.57325e-27
3.22732e-25
1.47467e-23
5.39488e-22
2.42848e-20
1.86411e-17
1.61068e-15
1.9505e-14
6.84732e-14
1.08885e-13
6.02461e-14
1.14414e-14
1.49228e-15
4.95665e-16
1.30796e-20
2.92144e-20
9.38179e-21
1.7443e-23
1.01955e-24
2.01157e-24
0
8.88429e-35
9.1187e-33
4.4456e-31
7.73264e-31
-1.57527e-27
-2.25549e-23
2.8046e-24
1.5268e-19
1.48366e-17
1.84123e-16
6.09129e-16
8.86003e-16
8.65184e-16
2.6404e-16
9.46088e-17
7.92003e-17
2.28229e-21
1.19217e-21
9.63293e-23
2.65636e-25
2.44558e-26
5.52345e-26
0
-1.23667e-37
-3.65611e-35
-4.74384e-33
-3.96807e-31
-2.43331e-29
-2.68614e-27
5.05513e-27
5.86666e-25
9.52101e-22
9.26445e-20
1.46998e-18
6.02708e-18
9.97348e-18
1.03796e-17
3.12771e-18
1.11117e-19
2.33669e-21
1.50029e-23
1.33541e-24
6.55793e-27
4.96989e-28
1.31783e-27
-2.20574e-41
-5.95531e-39
-8.09225e-37
-7.28271e-35
-4.85043e-33
-2.54381e-31
1.96793e-32
8.31078e-31
9.86113e-29
5.2887e-25
1.30135e-22
3.76243e-21
2.31098e-20
4.76562e-20
5.40998e-20
2.08839e-20
1.15433e-21
1.104e-21
2.90831e-25
2.02633e-26
1.34042e-28
8.52172e-30
2.73778e-29
3.98047e-60
5.06814e-46
8.18363e-44
8.81804e-42
7.14161e-40
4.64281e-38
2.52755e-36
1.18771e-34
6.65929e-33
4.96882e-30
1.3051e-26
1.07223e-24
1.70147e-23
7.079e-23
1.18399e-22
1.2376e-22
4.43885e-23
1.16341e-23
1.19876e-26
3.78385e-28
2.33749e-30
1.25275e-31
4.94488e-31
-3.38279e-66
8.64288e-50
1.55003e-47
1.85449e-45
1.66555e-43
1.1968e-41
7.12589e-40
-6.64774e-38
2.98851e-36
1.4846e-34
2.05796e-31
9.90311e-29
7.96645e-27
1.1814e-25
4.17062e-25
5.88927e-25
3.69059e-25
2.11816e-28
9.49743e-28
8.05677e-30
3.4809e-32
1.5479e-33
7.79993e-33
2.11811e-69
4.16241e-55
-1.94208e-52
-9.34967e-50
-1.86524e-47
-2.4399e-45
-6.89956e-42
-2.12388e-41
2.0767e-41
1.70778e-39
5.69056e-36
3.24461e-32
4.64921e-30
1.11818e-28
5.33629e-28
8.49273e-28
6.32406e-28
2.38965e-29
2.24227e-29
1.45105e-31
4.48825e-34
2.1471e-35
1.07207e-34
1.20888e-73
-2.39807e-58
-1.11046e-55
-2.26071e-53
-2.98408e-51
-2.9145e-49
-4.39394e-47
1.55503e-46
1.60117e-44
9.22056e-43
5.00151e-41
3.69394e-38
1.5911e-35
2.83011e-33
1.13556e-31
8.04041e-31
1.53644e-30
1.38095e-30
1.23837e-32
1.44278e-33
5.27384e-36
5.21413e-37
1.27934e-36
-4.05204e-63
-1.7736e-60
-3.88738e-58
-5.66719e-56
-6.16698e-54
-5.34858e-52
1.47778e-52
1.16825e-50
1.29455e-48
9.57896e-47
5.65269e-45
7.90608e-43
6.5791e-39
2.04288e-36
1.42496e-34
1.51291e-33
3.55062e-33
3.51348e-33
1.98697e-35
2.11973e-35
6.00005e-38
1.09748e-38
1.33404e-38
2.68677e-84
6.04501e-69
1.85823e-66
3.82329e-64
5.93928e-62
7.44095e-60
7.84367e-58
7.1736e-56
1.64358e-54
8.28319e-52
5.80081e-50
9.77463e-48
2.85234e-43
2.48615e-40
3.30738e-38
6.02264e-37
2.07274e-36
2.51794e-36
4.26292e-37
1.07382e-37
1.07973e-38
2.07927e-40
1.22807e-40
3.20261e-89
3.90596e-73
1.43385e-70
3.51677e-68
6.49412e-66
9.66881e-64
1.2121e-61
-1.48732e-59
2.40315e-57
2.28295e-55
1.94311e-53
1.53637e-51
1.2398e-49
2.31944e-46
1.59804e-43
3.77511e-41
1.20559e-39
5.86137e-39
8.00744e-39
4.05997e-40
1.9993e-40
2.99701e-42
1.02927e-42
1.40824e-93
1.68381e-78
-4.08934e-76
-7.76881e-73
-3.33734e-70
-8.8229e-68
-3.45982e-64
-2.0073e-63
3.85731e-62
5.31899e-60
5.5948e-58
5.55858e-56
5.21721e-54
1.87205e-51
5.54414e-47
2.81991e-44
1.60325e-42
1.12945e-41
1.8276e-41
1.96443e-42
1.52754e-42
3.89373e-44
8.48812e-45
-3.90598e-97
-4.2477e-82
-4.09976e-79
-1.81978e-76
-5.2971e-74
-1.14944e-71
-3.48901e-69
2.4809e-69
5.84888e-67
1.04456e-64
1.41986e-62
1.82421e-60
2.23091e-58
2.6586e-56
4.52002e-53
8.78742e-49
2.48041e-46
7.10829e-45
3.11846e-44
4.13833e-44
7.12477e-45
5.21508e-46
7.81902e-47
-2.92426e-89
-3.27518e-86
-1.81001e-83
-6.63237e-81
-1.81696e-78
-3.98121e-76
3.27644e-76
8.14411e-74
3.17103e-71
6.79356e-69
1.29411e-66
2.32967e-64
4.01817e-62
6.69135e-60
1.09692e-57
8.2386e-55
1.26095e-50
3.58036e-48
7.6864e-47
2.18331e-46
3.79503e-47
6.59111e-48
9.06343e-49
8.87636e-110
2.00767e-96
2.92287e-93
2.7625e-90
1.95403e-87
1.11294e-84
5.35139e-82
2.24585e-79
1.08759e-76
5.40895e-74
1.73045e-71
5.22127e-69
1.5065e-66
4.21001e-64
1.1469e-61
5.211e-59
3.89061e-54
3.79151e-51
1.70949e-49
7.01366e-49
2.0673e-49
7.70364e-50
1.24482e-50
8.90676e-118
3.20518e-109
1.50736e-105
-5.28369e-98
-3.07674e-94
-4.92257e-91
-4.9513e-88
-3.58173e-83
-1.24322e-83
4.21846e-83
8.02872e-80
7.47132e-77
6.62478e-74
5.67071e-71
4.73031e-68
1.14451e-64
8.12522e-59
1.70245e-54
2.34384e-52
1.6875e-51
1.24377e-51
8.78654e-52
1.83634e-52
0
0
-4.04915e-111
-6.72243e-107
-3.30044e-103
-1.00575e-99
-4.55019e-95
-2.75062e-93
5.79307e-102
4.72679e-99
-6.69159e-96
-2.84367e-93
-3.13408e-90
3.26121e-87
0
-3.33277e-81
5.70116e-67
1.16963e-60
1.99035e-56
1.86241e-54
1.03342e-53
1.02365e-52
3.68551e-53
0.39654
0
-3.30141e-28
0
0.553465
0.027041
1.3023e-12
2.16308e-07
0.536918
0.170612
1.85218e-08
1.50985e-07
0.323946
0.266454
0.0217284
1.79095e-07
0.0260319
0.17852
0.0809827
0.00169586
0.00256418
0.0171004
0.0753372
0.0414428
0.000543149
0.00160008
0.0107216
0.0216198
9.64575e-05
0.000283295
0.000481795
0.000689176
1.43692e-05
4.08853e-05
7.11087e-05
8.53487e-05
1.85627e-06
5.26963e-06
9.00522e-06
1.10929e-05
2.22219e-07
6.12697e-07
1.03424e-06
1.25991e-06
2.45635e-08
6.6268e-08
1.08661e-07
1.30395e-07
2.56555e-09
6.69624e-09
1.0703e-08
1.24985e-08
2.58494e-10
6.44156e-10
9.94199e-10
1.13184e-09
3.47605e-11
7.29698e-11
1.00065e-10
1.15424e-10
6.53228e-12
8.28531e-12
1.09633e-11
1.25128e-11
9.41514e-13
1.52486e-12
1.97359e-12
2.51487e-12
8.66361e-14
1.52344e-13
2.02023e-13
2.60491e-13
6.80649e-15
1.08234e-14
1.42651e-14
1.67769e-14
4.89649e-16
7.38785e-16
9.3398e-16
1.01228e-15
3.12353e-17
4.54062e-17
5.45842e-17
5.59726e-17
1.75018e-18
2.46263e-18
2.80509e-18
2.78382e-18
8.55755e-20
1.16666e-19
1.28177e-19
1.22747e-19
3.6445e-21
4.84177e-21
5.17303e-21
4.81393e-21
1.35118e-22
1.76464e-22
1.84268e-22
1.68436e-22
4.36295e-24
5.65854e-24
5.81025e-24
5.26646e-24
1.2279e-25
1.60115e-25
1.62639e-25
1.47467e-25
3.0194e-27
4.00432e-27
4.0575e-27
3.7073e-27
6.50127e-29
8.87926e-29
9.05125e-29
8.3924e-29
1.22895e-30
1.75164e-30
1.81062e-30
1.71636e-30
2.04513e-32
3.08207e-32
3.25964e-32
3.18128e-32
2.99383e-34
4.80908e-34
5.42782e-34
5.2804e-34
3.88394e-36
6.73309e-36
8.21648e-36
7.9379e-36
4.48014e-38
8.49443e-38
1.13264e-37
1.08185e-37
4.61317e-40
9.67935e-40
1.41761e-39
1.37906e-39
4.26111e-42
9.96657e-42
1.6063e-41
1.73783e-41
3.55354e-44
9.36309e-44
1.68013e-43
2.05163e-43
2.7115e-46
8.09236e-46
1.63067e-45
2.25663e-45
1.94932e-48
6.50154e-48
1.47637e-47
2.32607e-47
1.4184e-50
4.95546e-50
1.25833e-49
2.25678e-49
1.02876e-52
3.25493e-52
8.99568e-52
1.73756e-51
3.68551e-53
5.59246e-53
1.29472e-52
3.24582e-52
6.25382e-11
1.73687e-11
6.20034e-12
8.00499e-13
7.70586e-13
1.56177e-13
4.56421e-15
7.33674e-17
1.61719e-18
3.78385e-20
8.00725e-22
1.48543e-23
2.34572e-25
3.02139e-27
2.96483e-29
1.91996e-31
6.19486e-34
1.43264e-37
1.4626e-43
4.41709e-07
4.35799e-09
3.47472e-10
8.59008e-12
6.02728e-13
5.06798e-13
5.28509e-14
1.05628e-15
1.37608e-17
2.28538e-19
4.03008e-21
6.64004e-23
9.94604e-25
1.29793e-26
1.3871e-28
1.11635e-30
5.95149e-33
1.6238e-35
7.12163e-39
2.49529e-07
8.24944e-07
1.33114e-08
2.0267e-10
4.28903e-12
2.69402e-13
2.3718e-13
1.05348e-14
1.49142e-16
1.76409e-18
2.4378e-20
3.15823e-22
3.51605e-24
3.40383e-26
2.8947e-28
2.10242e-30
1.20558e-32
4.64217e-35
8.3059e-38
2.71692e-07
8.80836e-06
2.55362e-06
5.28505e-08
9.26288e-11
4.1147e-12
1.06826e-12
7.96146e-14
7.94696e-16
4.31328e-18
3.7865e-20
5.45126e-22
7.35815e-24
7.31109e-26
5.58312e-28
3.38707e-30
1.62609e-32
5.65786e-35
1.04594e-37
7.17711e-05
9.70253e-06
2.45361e-05
2.53751e-06
6.96656e-09
9.38979e-11
2.4681e-12
7.37736e-13
3.08515e-14
2.52693e-16
1.87561e-18
1.28511e-20
7.49815e-23
3.66156e-25
1.42658e-27
3.79211e-30
5.20745e-33
5.20935e-36
1.91746e-38
0.00254684
7.7826e-05
2.26879e-05
6.28197e-06
1.11483e-07
9.43907e-10
2.46703e-11
8.83437e-13
2.46186e-13
5.7584e-15
4.52822e-17
3.38416e-19
2.1008e-21
1.01921e-23
3.41246e-26
6.59693e-29
7.53079e-32
4.36237e-35
7.96092e-41
0.0172105
0.00496291
5.19516e-05
3.88206e-06
2.0423e-07
7.93181e-09
2.37998e-10
8.95229e-12
2.07118e-13
2.03396e-14
3.27866e-16
2.79372e-18
2.10359e-20
1.26243e-22
5.5093e-25
1.51973e-27
1.42065e-30
1.24629e-33
1.87041e-39
0.00706911
0.00629588
0.000644837
6.89735e-06
4.23294e-07
1.9075e-08
6.57598e-10
1.92538e-11
5.62468e-13
2.90595e-14
5.85709e-16
6.60886e-18
6.03469e-20
4.32541e-22
2.36827e-24
9.36433e-27
2.38872e-29
2.89705e-32
1.61941e-36
0.000152115
0.000873108
0.000267121
1.59815e-06
1.0106e-07
4.85608e-09
1.81449e-10
6.4796e-12
1.9028e-13
1.11538e-14
2.1362e-16
2.88556e-18
3.25819e-20
2.91089e-22
2.01512e-24
1.04503e-26
3.81558e-29
8.65135e-32
8.74848e-35
1.58627e-05
8.26804e-06
8.89111e-06
6.7401e-07
8.70728e-09
4.10637e-10
1.89233e-11
7.2608e-13
6.24828e-14
1.66404e-15
2.84815e-17
4.30078e-19
5.35929e-21
5.40749e-23
4.32319e-25
2.63918e-27
1.15265e-29
3.23841e-32
4.2883e-35
1.73773e-06
8.03775e-07
1.4661e-07
2.04604e-08
9.12534e-10
4.91262e-11
2.42476e-12
2.52433e-13
8.81299e-15
1.78715e-16
3.21105e-18
4.82305e-20
5.96235e-22
5.98952e-24
4.78651e-26
2.93957e-28
1.30745e-30
3.76035e-33
5.13494e-36
1.70828e-07
7.17298e-08
1.24918e-08
1.42436e-09
9.89392e-11
5.77742e-12
7.57277e-13
3.44746e-14
8.49514e-16
1.87269e-17
3.47301e-19
5.34058e-21
6.76357e-23
6.96539e-25
5.71178e-27
3.60374e-29
1.64968e-31
4.89304e-34
6.91233e-37
1.54941e-08
5.98074e-09
1.00153e-09
1.38874e-10
1.06242e-11
1.57773e-12
8.97991e-14
2.70554e-15
7.25361e-17
1.63982e-18
3.08634e-20
4.82661e-22
6.22964e-24
6.55282e-26
5.50147e-28
3.56296e-30
1.67904e-32
5.14487e-35
7.54284e-38
1.32408e-09
4.98778e-10
1.01553e-10
1.29287e-11
2.33134e-12
1.66177e-13
6.09241e-15
1.9775e-16
5.39549e-18
1.22461e-19
2.31841e-21
3.65459e-23
4.7651e-25
5.07548e-27
4.32562e-29
2.85132e-31
1.3715e-33
4.30332e-36
6.48306e-39
1.33797e-10
5.1622e-11
9.87121e-12
2.41067e-12
2.18291e-13
9.96582e-15
3.93845e-16
1.29271e-17
3.51133e-19
7.95009e-21
1.50453e-22
2.37573e-24
3.10991e-26
3.33335e-28
2.86571e-30
1.91031e-32
9.31718e-35
2.97286e-37
4.5663e-40
1.30815e-11
7.11294e-12
1.85707e-12
2.03279e-13
1.19682e-14
5.8361e-16
2.31433e-17
7.50964e-19
2.02061e-20
4.54217e-22
8.55301e-24
1.34681e-25
1.76213e-27
1.89218e-29
1.63357e-31
1.09619e-33
5.39566e-36
1.74206e-38
2.71256e-41
2.47417e-12
9.4841e-13
1.4192e-13
1.06588e-14
6.50613e-16
3.14527e-17
1.22336e-18
3.90628e-20
1.03724e-21
2.30676e-23
4.30761e-25
6.7425e-27
8.78937e-29
9.4254e-31
8.1453e-33
5.48425e-35
2.71505e-37
8.83844e-40
1.38917e-42
2.47796e-13
5.93492e-14
6.86534e-15
5.45026e-16
3.26497e-17
1.53589e-18
5.84025e-20
1.83002e-21
4.7832e-23
1.04998e-24
1.94024e-26
3.01251e-28
3.9046e-30
4.17284e-32
3.602e-34
2.42798e-36
1.20613e-38
3.9489e-41
6.24468e-44
1.47732e-14
2.97208e-15
3.31375e-16
2.56569e-17
1.48838e-18
6.80351e-20
2.52585e-21
7.75684e-23
1.99333e-24
4.31427e-26
7.88027e-28
1.21235e-29
1.56064e-31
1.66021e-33
1.42964e-35
9.63442e-38
4.79516e-40
1.57628e-42
2.50159e-45
8.07789e-16
1.50039e-16
1.53124e-17
1.10513e-18
6.16098e-20
2.73788e-21
9.92625e-23
2.98757e-24
7.54761e-26
1.61045e-27
2.90722e-29
4.43095e-31
5.66328e-33
5.99449e-35
5.14672e-37
3.46519e-39
1.72651e-41
5.69235e-44
9.04588e-47
4.09649e-17
6.9877e-18
6.70515e-19
4.47019e-20
2.3476e-21
1.00452e-22
3.55669e-24
1.0503e-25
2.61106e-27
5.49611e-29
9.81027e-31
1.48184e-32
1.88104e-34
1.98142e-36
1.69635e-38
1.14096e-40
5.68911e-43
1.88042e-45
2.98443e-48
1.87077e-18
2.97401e-19
2.72604e-20
1.72949e-21
8.48218e-23
3.42495e-24
1.16923e-25
3.38503e-27
8.29652e-29
1.72537e-30
3.04898e-32
4.56878e-34
5.76469e-36
6.04598e-38
5.16324e-40
3.47004e-42
1.73162e-44
5.73879e-47
9.06167e-50
7.69553e-20
1.15685e-20
1.02439e-21
6.27002e-23
2.94802e-24
1.12617e-25
3.62051e-27
1.01354e-28
2.43572e-30
5.01116e-32
8.78505e-34
1.30782e-35
1.64212e-37
1.71671e-39
1.46341e-41
9.83182e-44
4.91137e-46
1.6329e-48
2.55109e-51
2.85455e-21
4.10846e-22
3.55634e-23
2.12123e-24
9.67915e-26
3.5702e-27
1.10017e-28
2.9137e-30
6.75446e-32
1.36004e-33
2.36284e-35
3.50008e-37
4.37921e-39
4.56847e-41
3.89123e-43
2.61559e-45
1.30875e-47
4.3688e-50
6.70935e-53
9.55091e-23
1.33169e-23
1.14e-24
6.69724e-26
2.99286e-27
1.07658e-28
3.22549e-30
8.27392e-32
1.83816e-33
3.54878e-35
6.0369e-37
8.83266e-39
1.10104e-40
1.1475e-42
9.7739e-45
6.57756e-47
3.29874e-49
1.10697e-51
1.66177e-54
2.88612e-24
3.94234e-25
3.37512e-26
1.97318e-27
8.71766e-29
3.08383e-30
9.05345e-32
2.27093e-33
4.92121e-35
9.24059e-37
1.51682e-38
2.15712e-40
2.65333e-42
2.74532e-44
2.33657e-46
1.57436e-48
7.91922e-51
2.6743e-53
3.90672e-56
7.89464e-26
1.06789e-26
9.24076e-28
5.42927e-29
2.39294e-30
8.39372e-32
2.43276e-33
6.00604e-35
1.27903e-36
2.35835e-38
3.79711e-40
5.28403e-42
6.3354e-44
6.42342e-46
5.42083e-48
3.63708e-50
1.82771e-52
6.21336e-55
8.80503e-58
1.96109e-27
2.65459e-28
2.34501e-29
1.39747e-30
6.19664e-32
2.17215e-33
6.25994e-35
1.53118e-36
3.22276e-38
5.86619e-40
9.3213e-42
1.28016e-43
1.51501e-45
1.51585e-47
1.25991e-49
8.34414e-52
4.15794e-54
1.41925e-56
1.95662e-59
4.44197e-29
6.08042e-30
5.53355e-31
3.3732e-32
1.51658e-33
5.35099e-35
1.54361e-36
3.7638e-38
7.87379e-40
1.42199e-41
2.23948e-43
3.04786e-45
3.57604e-47
3.54979e-49
2.92922e-51
1.92888e-53
9.57248e-56
3.27488e-58
4.41255e-61
9.2179e-31
1.28982e-31
1.21916e-32
7.6601e-34
3.51665e-35
1.25714e-36
3.65223e-38
8.9275e-40
1.86592e-41
3.35924e-43
5.26573e-45
7.12777e-47
8.31618e-49
8.2121e-51
6.74612e-53
4.4272e-55
2.19309e-57
7.54538e-60
9.91611e-63
1.76165e-32
2.54857e-33
2.51996e-34
1.64275e-35
7.74908e-37
2.82323e-38
8.30597e-40
2.04586e-41
4.29242e-43
7.73669e-45
1.21179e-46
1.63706e-48
1.90499e-50
1.87602e-52
1.53725e-54
1.00699e-56
4.986e-59
1.7277e-61
2.21794e-64
3.11756e-34
4.7194e-35
4.91205e-36
3.3411e-37
1.62822e-38
6.0774e-40
1.81959e-41
4.5371e-43
9.59682e-45
1.73854e-46
2.73051e-48
3.69304e-50
4.29797e-52
4.23106e-54
3.46533e-56
2.26983e-58
1.12528e-60
3.93421e-63
4.95544e-66
5.13586e-36
8.23924e-37
9.07771e-38
6.47333e-39
3.27439e-40
1.25785e-41
3.84941e-43
9.75681e-45
2.08854e-46
3.81619e-48
6.02922e-50
8.18731e-52
9.55365e-54
9.42263e-56
7.7294e-58
5.07293e-60
2.52422e-62
8.93345e-65
1.11463e-67
7.91814e-38
1.36346e-38
1.59873e-39
1.20019e-40
6.32691e-42
2.51137e-43
7.88601e-45
2.03921e-46
4.43261e-48
8.19482e-50
1.30613e-51
1.78539e-53
2.09384e-55
2.07367e-57
1.70767e-59
1.12618e-61
5.64771e-64
2.03592e-66
2.56518e-69
1.13361e-39
2.14883e-40
2.69615e-41
2.13893e-42
1.17931e-43
4.85382e-45
1.56916e-46
4.15288e-48
9.19421e-50
1.72463e-51
2.78021e-53
3.83484e-55
4.53069e-57
4.51704e-59
3.746e-61
2.49376e-63
1.27012e-65
4.71981e-68
6.21854e-71
1.48549e-41
3.23841e-42
4.3735e-43
3.68014e-44
2.12908e-45
9.11426e-47
3.04243e-48
8.264e-50
1.86838e-51
3.56474e-53
5.82616e-55
8.12857e-57
9.70046e-59
9.7689e-61
8.19944e-63
5.55608e-65
2.91569e-67
1.14091e-69
1.656e-72
1.8336e-43
4.68453e-44
6.85323e-45
6.13967e-46
3.73833e-47
1.66904e-48
5.76757e-50
1.61178e-51
3.72991e-53
7.25497e-55
1.20501e-56
1.70515e-58
2.06279e-60
2.10976e-62
1.80847e-64
1.26676e-66
7.02402e-69
2.98677e-71
5.03879e-74
2.15913e-45
6.53075e-46
1.04197e-46
9.97631e-48
6.41112e-49
2.99252e-50
1.0729e-51
3.0913e-53
7.33801e-55
1.45843e-56
2.46844e-58
3.55591e-60
4.38626e-62
4.60108e-64
4.0954e-66
3.04525e-68
1.85019e-70
8.82514e-73
1.76847e-75
2.44593e-47
8.81647e-48
1.54451e-48
1.5863e-49
1.07873e-50
5.27543e-52
1.96621e-53
5.85239e-55
1.42808e-56
2.90812e-58
5.03526e-60
7.43034e-62
9.44567e-64
1.03476e-65
9.83793e-68
8.06064e-70
5.55583e-72
3.00315e-74
6.96443e-77
2.69114e-49
1.15935e-49
2.24441e-50
2.48122e-51
1.78958e-52
9.18669e-54
3.56592e-55
1.09871e-56
2.76345e-58
5.78959e-60
1.03241e-61
1.57878e-63
2.1094e-65
2.48743e-67
2.6244e-69
2.44927e-71
1.93147e-73
1.15761e-75
2.95248e-78
2.29954e-51
1.36817e-51
3.07537e-52
3.74211e-53
2.89836e-54
1.5745e-55
6.40476e-57
2.05481e-58
5.35604e-60
1.16353e-61
2.16553e-63
3.50864e-65
5.09511e-67
6.7363e-69
8.14839e-71
8.71079e-73
7.66563e-75
4.91083e-77
1.31673e-79
6.02418e-52
1.31072e-52
1.55318e-53
1.1795e-54
6.31106e-56
2.53441e-57
8.03634e-59
2.07846e-60
5.20972e-62
1.19298e-63
2.37658e-65
4.22835e-67
6.95488e-69
1.06228e-70
1.47524e-72
1.75949e-74
1.66635e-76
1.10947e-78
3.04837e-81
)
;

boundaryField
{
    leftWall
    {
        type            zeroGradient;
    }
    rightWall
    {
        type            zeroGradient;
    }
    lowerWall
    {
        type            zeroGradient;
    }
    atmosphere
    {
        type            inletOutlet;
        inletValue      uniform 0;
        value           nonuniform List<scalar> 
46
(
0
0
0
0
0
0
0
0
0
0
0
0
0
0
0
0
0
0
0
0
1.03342e-53
1.02365e-52
3.68551e-53
3.68551e-53
5.59246e-53
1.29472e-52
3.24582e-52
6.02418e-52
1.31072e-52
1.55318e-53
1.1795e-54
6.31106e-56
2.53441e-57
8.03634e-59
2.07846e-60
5.20972e-62
1.19298e-63
2.37658e-65
4.22835e-67
6.95488e-69
1.06228e-70
1.47524e-72
1.75949e-74
1.66635e-76
1.10947e-78
3.04837e-81
)
;
    }
    defaultFaces
    {
        type            empty;
    }
}


// ************************************************************************* //
