/*--------------------------------*- C++ -*----------------------------------*\
| =========                 |                                                 |
| \\      /  F ield         | OpenFOAM: The Open Source CFD Toolbox           |
|  \\    /   O peration     | Version:  5.x                                   |
|   \\  /    A nd           | Web:      www.OpenFOAM.org                      |
|    \\/     M anipulation  |                                                 |
\*---------------------------------------------------------------------------*/
FoamFile
{
    version     2.0;
    format      ascii;
    class       volScalarField;
    location    "0.15";
    object      p;
}
// * * * * * * * * * * * * * * * * * * * * * * * * * * * * * * * * * * * * * //

dimensions      [1 -1 -2 0 0 0 0];

internalField   nonuniform List<scalar> 
2268
(
2497.24
2501.52
2496.77
2485.8
2471.01
2452.7
2430.23
2403.21
2371.4
2334.81
2293.93
2250.11
2206.03
2166.61
2140.34
2141.17
2190.9
2325
2569.03
2945.27
3406.06
3807.19
4061.17
2437.08
2441.29
2436.45
2425.46
2410.67
2392.29
2369.71
2342.52
2310.45
2273.47
2232.04
2187.4
2142.12
2100.91
2071.96
2068.61
2111.21
2224.73
2447.78
2805.1
3283.42
3745.8
4095.09
2375.61
2379.7
2374.69
2363.66
2348.84
2330.33
2307.53
2279.99
2247.42
2209.68
2167.14
2120.88
2073.2
2028.41
1994.12
1982.69
2013.03
2111.39
2312.9
2641.37
3103.54
3623.69
4101.52
2312.85
2316.76
2311.51
2300.42
2285.55
2266.85
2243.72
2215.68
2182.35
2143.5
2099.32
2050.66
1999.41
1949.33
1907.15
1883.87
1896.83
1971.86
2144.68
2445.28
2888.64
3434.89
4025.81
2248.84
2252.51
2246.98
2235.79
2220.83
2201.9
2178.34
2149.65
2115.33
2075.03
2028.72
1976.92
1921.01
1864
1811.46
1772.58
1762.34
1804.81
1936.63
2196.11
2615.81
3171.76
3837.07
2183.6
2187.01
2181.15
2169.83
2154.75
2135.53
2111.46
2081.97
2046.47
2004.4
1955.52
1899.92
1838.34
1772.88
1707.68
1649.54
1610.07
1609.77
1683.85
1873.92
2242.36
2800.09
3511.41
2117.18
2120.26
2114.02
2102.54
2087.33
2067.77
2043.12
2012.71
1975.83
1931.74
1879.89
1819.9
1751.79
1676.59
1596.67
1515.86
1441.48
1388.12
1383.93
1457.28
1703.94
2235.09
2966.17
2049.64
2052.24
2045.58
2033.94
2018.57
1998.65
1973.33
1941.89
1903.48
1857.15
1802.01
1737.16
1661.85
1575.89
1479.59
1373.47
1259.27
1140.49
1026.06
920.238
926.463
1399.24
2087.33
-2.08494
-2.10527
-2.11303
-2.09082
-2.04085
-1.96933
-1.88565
-1.79755
-1.71074
-1.62903
-1.55465
-1.48873
-1.4317
-1.38355
-1.34408
-1.31302
-1.29004
-1.2749
-1.26732
-2.14408
-2.16837
-2.17804
-2.15535
-2.10387
-2.03078
-1.94571
-1.85652
-1.76897
-1.68679
-1.61215
-1.54609
-1.48902
-1.44088
-1.40144
-1.37044
-1.34749
-1.33238
-1.32481
-2.20664
-2.23593
-2.24868
-2.22515
-2.1711
-2.09481
-2.00689
-1.91553
-1.82649
-1.74338
-1.66821
-1.6019
-1.54476
-1.49667
-1.4573
-1.4264
-1.40354
-1.38849
-1.38096
-2.27271
-2.30917
-2.32643
-2.30112
-2.24275
-2.16141
-2.06913
-1.97447
-1.8832
-1.79871
-1.72279
-1.65614
-1.59891
-1.5509
-1.51165
-1.48089
-1.45817
-1.44323
-1.43575
-2.34597
-2.39049
-2.41319
-2.38414
-2.31909
-2.23055
-2.13225
-2.03317
-1.93896
-1.8527
-1.77582
-1.70876
-1.65143
-1.60355
-1.56448
-1.53393
-1.5114
-1.4966
-1.48919
-2.4319
-2.48336
-2.51139
-2.4753
-2.4004
-2.30215
-2.19604
-2.09138
-1.99358
-1.90518
-1.82719
-1.75968
-1.7023
-1.65463
-1.61578
-1.58549
-1.56326
-1.54861
-1.54129
-2.54962
-2.59512
-2.62369
-2.57593
-2.48705
-2.37603
-2.26019
-2.14882
-2.04681
-1.956
-1.8768
-1.80886
-1.75145
-1.70415
-1.66553
-1.63563
-1.61379
-1.59926
-1.59204
-2.71176
-2.73103
-2.75397
-2.6872
-2.5793
-2.45201
-2.32436
-2.20517
-2.09838
-2.00497
-1.92454
-1.85625
-1.79883
-1.75211
-1.71378
-1.68456
-1.66279
-1.64853
-1.64147
1942.41
1944.02
1936.87
1924.92
1909.21
1888.64
1862.19
1829
1787.97
1737.8
1677.06
1603.95
1516.36
1412.04
1288.26
1140.66
957.401
710.799
383.762
137.635
210.596
379.006
416.789
1792.2
1792.61
1784.7
1772.34
1756.06
1734.43
1706.27
1670.48
1625.57
1569.68
1500.58
1415.1
1309.05
1177.95
1016.67
810.774
528.036
192.936
31.8777
22.8155
37.6339
77.8014
103.413
1638.48
1637.58
1628.89
1616.19
1599.34
1576.66
1546.84
1508.57
1459.92
1398.54
1321.43
1223.85
1100.01
945.694
751.684
485.159
163.014
17.0672
1.75419
2.20946
4.09354
11.3314
46.6253
1482.05
1479.81
1470.5
1457.56
1440.21
1416.6
1385.41
1345.05
1293.24
1227.27
1143.26
1034.73
896.333
724.947
496.29
190.231
17.7213
-0.0600028
-1.67885
-1.59949
-1.293
-0.5523
4.54336
1323.75
1320.23
1310.5
1297.46
1279.74
1255.49
1223.38
1181.62
1127.66
1058.59
969.268
852.204
704.92
515.617
246.579
25.9705
0.544918
-1.72282
-1.98768
-2.05598
-2.09123
-2.30377
-2.08843
1164.46
1159.81
1149.92
1136.9
1119.02
1094.51
1062.1
1019.81
965.071
894.83
802.27
681.513
530.967
317.353
57.641
1.78241
-1.34068
-1.82981
-1.90481
-1.98399
-2.02894
-2.04852
-2.03324
1005
999.398
989.614
976.761
958.964
934.633
902.588
860.753
806.862
737.491
644.779
527.792
374.355
143.987
5.79033
-1.00466
-1.72562
-1.74744
-1.76441
-1.77275
-1.72411
-1.51461
-1.33338
846.018
839.638
830.245
817.7
800.272
776.602
745.642
705.327
653.993
587.427
499.212
392.529
232.152
23.1537
-0.353025
-1.58029
-1.69625
-1.68228
-1.65967
-1.59107
-1.45982
-1.18311
-0.84576
688.339
681.379
672.625
660.515
643.741
621.148
591.838
553.915
506.309
444.132
364.617
267.903
110.156
1.95961
-1.15425
-1.64545
-1.59282
-1.63178
-1.60476
-1.52632
-1.38242
-1.14214
-0.827587
532.859
525.419
517.464
505.821
489.855
468.512
441.003
405.653
362.143
306.036
236.289
146.563
22.0041
-0.842127
-1.29672
-1.44615
-1.55609
-1.62583
-1.61837
-1.56144
-1.44034
-1.25895
-1.02873
379.366
371.382
364.337
353.177
338.265
318.541
293.284
260.544
221.434
174.105
117.629
50.8354
0.0418829
-1.27079
-1.05764
-1.2568
-1.57881
-1.69232
-1.71414
-1.67288
-1.57224
-1.43014
-1.26662
227.527
218.579
212.763
202.248
188.723
171.374
150.106
120.439
88.6659
59.5535
31.9823
10.715
-0.569004
-1.01405
-1.10844
-1.42297
-1.74654
-1.88
-1.89457
-1.84986
-1.75217
-1.63544
-1.51026
86.7442
77.954
74.8742
67.5499
58.4976
48.1244
37.3132
20.8936
10.3086
0.30944
-3.50363
-3.53962
-3.42181
-2.86745
-2.18701
-2.00451
-2.21984
-2.21206
-2.15126
-2.07494
-1.97035
-1.85705
-1.74925
9.87095
6.8606
6.03574
3.97736
1.4635
-1.205
-2.67942
-2.9905
-3.3194
-3.66102
-3.78009
-3.90782
-3.91961
-3.98488
-3.34134
-3.0843
-3.03531
-2.67145
-2.47525
-2.33395
-2.20108
-2.07834
-1.97589
-2.63785
-2.64259
-2.68012
-2.73741
-2.82094
-2.92292
-2.98503
-3.11779
-3.35211
-3.65774
-3.9745
-4.30883
-4.49672
-4.48906
-4.43195
-4.75722
-3.84665
-3.12978
-2.81595
-2.59205
-2.42326
-2.29045
-2.18705
-2.76203
-2.77377
-2.80185
-2.8458
-2.90689
-2.98211
-3.06804
-3.1975
-3.40484
-3.72685
-4.1856
-4.74337
-5.14374
-5.0881
-5.36225
-5.54727
-4.23106
-3.4813
-3.08631
-2.81058
-2.62146
-2.48206
-2.37927
-2.87702
-2.88888
-2.91015
-2.94309
-2.98876
-3.04759
-3.12569
-3.24295
-3.43105
-3.76575
-4.31256
-5.04176
-5.75378
-5.58425
-5.95939
-5.5677
-4.32995
-3.65745
-3.24787
-2.97017
-2.78374
-2.64837
-2.55138
-2.98283
-2.99135
-3.00708
-3.031
-3.06413
-3.10819
-3.16929
-3.2608
-3.41211
-3.7126
-4.26051
-5.03225
-5.6891
-5.73943
-5.63204
-5.06362
-4.17506
-3.65732
-3.31044
-3.07396
-2.91034
-2.79015
-2.70458
-3.08036
-3.08591
-3.09675
-3.11312
-3.13557
-3.16563
-3.20716
-3.26685
-3.36594
-3.57813
-3.97886
-4.49828
-4.90489
-5.03192
-4.89525
-4.44203
-3.88383
-3.55818
-3.31512
-3.13976
-3.01042
-2.91273
-2.84226
-3.1728
-3.17639
-3.18317
-3.19335
-3.20718
-3.22551
-3.25032
-3.284
-3.33773
-3.45197
-3.66846
-3.94702
-4.17483
-4.25083
-4.17207
-3.91039
-3.63739
-3.46366
-3.31123
-3.19193
-3.09754
-3.02368
-2.96906
-3.26331
-3.26529
-3.26899
-3.27446
-3.28184
-3.2916
-3.30488
-3.32262
-3.34966
-3.40387
-3.50559
-3.6403
-3.74765
-3.7781
-3.73238
-3.62484
-3.51167
-3.42004
-3.32742
-3.24901
-3.18321
-3.12993
-3.08958
-3.3538
-3.35455
-3.35602
-3.35817
-3.36109
-3.36509
-3.37096
-3.37943
-3.39278
-3.41806
-3.46298
-3.5233
-3.576
-3.59629
-3.57515
-3.53227
-3.48051
-3.42685
-3.36978
-3.31835
-3.27338
-3.23602
-3.20729
-3.446
-3.44595
-3.44594
-3.44592
-3.44598
-3.44638
-3.4477
-3.45064
-3.45676
-3.46961
-3.49242
-3.52229
-3.54884
-3.56263
-3.56038
-3.53583
-3.50423
-3.4697
-3.43371
-3.39988
-3.36957
-3.34401
-3.32427
-3.54122
-3.54074
-3.53982
-3.53849
-3.53684
-3.53512
-3.53377
-3.53336
-3.53496
-3.5406
-3.55163
-3.56612
-3.57917
-3.5866
-3.58582
-3.57495
-3.55725
-3.53607
-3.51345
-3.49144
-3.47144
-3.4545
-3.44154
-3.64018
-3.6395
-3.63808
-3.63602
-3.63344
-3.63057
-3.62778
-3.62552
-3.62456
-3.62611
-3.63088
-3.6378
-3.64434
-3.64805
-3.64709
-3.64081
-3.631
-3.61858
-3.60474
-3.59087
-3.57816
-3.56747
-3.55954
-3.74313
-3.74234
-3.7407
-3.7383
-3.7353
-3.7319
-3.72841
-3.72522
-3.7229
-3.72216
-3.72337
-3.72604
-3.72891
-3.73048
-3.72964
-3.72616
-3.7203
-3.713
-3.70479
-3.69648
-3.68889
-3.68269
-3.67844
-3.84985
-3.84901
-3.84731
-3.84482
-3.84169
-3.83812
-3.83437
-3.83076
-3.82774
-3.82574
-3.825
-3.8253
-3.82604
-3.82638
-3.82566
-3.82361
-3.82024
-3.81613
-3.81154
-3.80696
-3.80291
-3.79988
-3.79827
-3.95996
-3.95911
-3.95744
-3.955
-3.95193
-3.9484
-3.94465
-3.94095
-3.93763
-3.93502
-3.93328
-3.93234
-3.9319
-3.93152
-3.93081
-3.92954
-3.92752
-3.92561
-3.92338
-3.92126
-3.91961
-3.91877
-3.919
-4.07308
-4.07226
-4.07067
-4.06835
-4.06543
-4.06207
-4.05845
-4.05483
-4.05145
-4.04856
-4.04632
-4.04474
-4.04369
-4.04294
-4.04226
-4.04156
-4.04098
-4.03988
-4.03905
-4.03851
-4.03846
-4.03909
-4.04057
-4.1889
-4.18813
-4.18664
-4.18447
-4.18174
-4.17858
-4.17516
-4.17169
-4.16839
-4.16544
-4.16299
-4.1611
-4.15973
-4.15878
-4.15813
-4.1577
-4.15749
-4.15736
-4.15751
-4.15802
-4.159
-4.1606
-4.16289
-4.30712
-4.30641
-4.30502
-4.303
-4.30046
-4.29751
-4.29431
-4.29102
-4.28785
-4.28494
-4.28243
-4.28041
-4.27889
-4.27784
-4.2772
-4.27693
-4.277
-4.27736
-4.27812
-4.27928
-4.28091
-4.28308
-4.28585
-4.42746
-4.42681
-4.4255
-4.42362
-4.42125
-4.4185
-4.41549
-4.4124
-4.40936
-4.40653
-4.40404
-4.40198
-4.40038
-4.39928
-4.39864
-4.39845
-4.39868
-4.39935
-4.4004
-4.40191
-4.40389
-4.40638
-4.40938
-4.54964
-4.54904
-4.54781
-4.54604
-4.54382
-4.54123
-4.5384
-4.53547
-4.53256
-4.52983
-4.52737
-4.5253
-4.52367
-4.52252
-4.52185
-4.52167
-4.52197
-4.52273
-4.52394
-4.52561
-4.52774
-4.53034
-4.53341
-4.67339
-4.67282
-4.67166
-4.66999
-4.66789
-4.66544
-4.66275
-4.65995
-4.65716
-4.65449
-4.65208
-4.65
-4.64834
-4.64714
-4.64643
-4.64621
-4.64648
-4.64724
-4.64846
-4.65016
-4.65229
-4.65487
-4.65786
-4.79848
-4.79794
-4.79683
-4.79524
-4.79324
-4.79089
-4.78832
-4.78561
-4.7829
-4.78029
-4.7779
-4.77581
-4.77411
-4.77285
-4.77206
-4.77176
-4.77196
-4.77264
-4.7738
-4.7754
-4.77743
-4.77987
-4.78268
-4.92471
-4.92419
-4.92313
-4.9216
-4.91967
-4.9174
-4.9149
-4.91227
-4.9096
-4.90702
-4.90463
-4.90251
-4.90076
-4.89941
-4.89852
-4.89811
-4.89819
-4.89874
-4.89975
-4.90119
-4.90305
-4.90528
-4.90784
-5.05186
-5.05134
-5.05033
-5.04885
-5.04697
-5.04477
-5.04232
-5.03973
-5.0371
-5.03452
-5.03211
-5.02995
-5.02812
-5.02668
-5.02567
-5.02512
-5.02503
-5.02541
-5.02623
-5.02747
-5.02909
-5.03105
-5.03332
-5.17977
-5.17927
-5.17828
-5.17684
-5.175
-5.17284
-5.17043
-5.16786
-5.16524
-5.16266
-5.16021
-5.15799
-5.15608
-5.15452
-5.15337
-5.15266
-5.15239
-5.15257
-5.15317
-5.15416
-5.15551
-5.15717
-5.15909
-5.30849
-5.30801
-5.30703
-5.30561
-5.30379
-5.30163
-5.29923
-5.29665
-5.29401
-5.29139
-5.28888
-5.28658
-5.28456
-5.28287
-5.28156
-5.28067
-5.2802
-5.28016
-5.28051
-5.28124
-5.28228
-5.28361
-5.28516
-5.43794
-5.43751
-5.43653
-5.43512
-5.4333
-5.43113
-5.4287
-5.42609
-5.4234
-5.42071
-5.41811
-5.4157
-5.41353
-5.41169
-5.4102
-5.40911
-5.40842
-5.40814
-5.40823
-5.40867
-5.40941
-5.41038
-5.41152
-5.56788
-5.56749
-5.56654
-5.56514
-5.56331
-5.56113
-5.55868
-5.55603
-5.55327
-5.55051
-5.54781
-5.54527
-5.54296
-5.54094
-5.53926
-5.53795
-5.53703
-5.53649
-5.53632
-5.53648
-5.5369
-5.5375
-5.53821
-5.69844
-5.69822
-5.69729
-5.69588
-5.69404
-5.69183
-5.68932
-5.68661
-5.68378
-5.6809
-5.67808
-5.67539
-5.6729
-5.67068
-5.66878
-5.66723
-5.66606
-5.66525
-5.66481
-5.6647
-5.66482
-5.66503
-5.66527
-3.01512
-2.50938
-3.12544
-3.44176
-4.42776
-2.02256
-2.16384
-2.84254
16.4349
-0.736374
-2.8611
-3.72606
5.33659
0.33696
-5.48461
-6.27756
-1.07999
1.47688
-3.0664
-5.92379
-2.15131
-2.89884
-4.8906
-5.77667
-1.21346
-1.16633
-1.05549
-1.29128
-0.450299
-0.107769
0.218446
-0.0655855
-0.498411
-0.272927
-0.0978549
-0.155238
-0.844519
-0.734774
-0.662729
-0.66696
-1.1562
-1.09805
-1.06241
-1.0584
-1.43392
-1.39543
-1.3703
-1.36222
-1.68779
-1.65662
-1.63468
-1.62373
-1.92025
-1.89188
-1.87127
-1.85929
-2.13334
-2.10593
-2.08562
-2.07264
-2.32718
-2.30056
-2.2805
-2.26691
-2.50256
-2.47749
-2.45841
-2.44498
-2.66122
-2.63881
-2.62158
-2.6091
-2.80598
-2.78707
-2.77237
-2.76153
-2.94041
-2.92537
-2.91357
-2.90476
-3.06811
-3.05678
-3.04788
-3.0412
-3.19195
-3.18387
-3.17755
-3.17287
-3.31384
-3.30841
-3.30425
-3.30129
-3.43491
-3.43155
-3.42913
-3.42757
-3.55578
-3.55402
-3.55293
-3.55249
-3.67681
-3.67624
-3.67617
-3.67658
-3.79819
-3.79849
-3.79917
-3.80021
-3.92001
-3.92093
-3.92214
-3.92363
-4.04232
-4.04365
-4.04521
-4.047
-4.1651
-4.1667
-4.16847
-4.17042
-4.28833
-4.29007
-4.29194
-4.29397
-4.41198
-4.41376
-4.41566
-4.41768
-4.53599
-4.53775
-4.53961
-4.54157
-4.66035
-4.66203
-4.6638
-4.66565
-4.78501
-4.78658
-4.78822
-4.78993
-4.90996
-4.91138
-4.91287
-4.91441
-5.03518
-5.03644
-5.03774
-5.03909
-5.16068
-5.16174
-5.16284
-5.16399
-5.28644
-5.28729
-5.28818
-5.2891
-5.41247
-5.41311
-5.41377
-5.41445
-5.5388
-5.5392
-5.53961
-5.54004
-5.66548
-5.66562
-5.66576
-5.66591
-3.12853
-3.02806
-3.00048
-2.88396
-2.73366
-2.57388
-2.42401
-2.29077
-2.17584
-2.07821
-1.99594
-1.92737
-1.86994
-1.82486
-1.78721
-1.75835
-1.73723
-1.72347
-1.71672
-3.55183
-3.6971
-3.5099
-3.23631
-2.97311
-2.74243
-2.55168
-2.39555
-2.26901
-2.16641
-2.08256
-2.01543
-1.95964
-1.91523
-1.87969
-1.85236
-1.83242
-1.81924
-1.81255
-4.87693
-4.86313
-4.26729
-3.65554
-3.21534
-2.89159
-2.65787
-2.48019
-2.34527
-2.24114
-2.15823
-2.09267
-2.04014
-1.9984
-1.9655
-1.94032
-1.92189
-1.90964
-1.90364
-7.00224
-6.42948
-5.13879
-4.04471
-3.40363
-2.98799
-2.72747
-2.53759
-2.39989
-2.29804
-2.22023
-2.15975
-2.11211
-2.07455
-2.04513
-2.02266
-2.00599
-1.99531
-1.99005
-7.6159
-7.10472
-5.5846
-4.20357
-3.47417
-3.01319
-2.73523
-2.55336
-2.42771
-2.33706
-2.2692
-2.21704
-2.17627
-2.14427
-2.11927
-2.09956
-2.08572
-2.0767
-2.07225
-5.9922
-6.57893
-5.51568
-4.1304
-3.3137
-2.91408
-2.67955
-2.53059
-2.43102
-2.35994
-2.30683
-2.26588
-2.23379
-2.20859
-2.18795
-2.17274
-2.16171
-2.1545
-2.15094
-5.18211
-6.11245
-5.06243
-3.72175
-2.99592
-2.71423
-2.57133
-2.47905
-2.41662
-2.37126
-2.33638
-2.30861
-2.28631
-2.26783
-2.25376
-2.24282
-2.23478
-2.22949
-2.22686
-1.41708
-3.64548
-3.15155
-2.783
-2.54298
-2.46773
-2.44099
-2.41622
-2.39521
-2.37751
-2.36225
-2.34814
-2.33599
-2.32583
-2.31751
-2.31086
-2.30585
-2.3025
-2.30083
-0.734621
-1.40293
-1.66872
-2.0467
-2.19608
-2.27558
-2.3323
-2.36339
-2.37853
-2.38555
-2.38755
-2.38748
-2.38562
-2.38307
-2.38039
-2.37791
-2.37586
-2.37441
-2.37365
-0.797185
-1.07155
-1.44129
-1.80905
-2.03396
-2.1776
-2.27412
-2.33498
-2.3752
-2.4016
-2.41872
-2.42986
-2.43685
-2.44113
-2.44363
-2.44502
-2.44572
-2.44604
-2.44614
-1.09957
-1.26629
-1.51739
-1.77962
-1.98847
-2.14192
-2.25364
-2.33276
-2.38887
-2.42872
-2.457
-2.47711
-2.49135
-2.50137
-2.50835
-2.51313
-2.51626
-2.51815
-2.51903
-1.37599
-1.4791
-1.64954
-1.84476
-2.01927
-2.16104
-2.27221
-2.35692
-2.42067
-2.4684
-2.50403
-2.53057
-2.55028
-2.56483
-2.57544
-2.58302
-2.5882
-2.59143
-2.59296
-1.6235
-1.68947
-1.81037
-1.95512
-2.09537
-2.21849
-2.32117
-2.40397
-2.46944
-2.52061
-2.5603
-2.59092
-2.61438
-2.6322
-2.64556
-2.65532
-2.66212
-2.66642
-2.66849
-1.85361
-1.89595
-1.98022
-2.08721
-2.19817
-2.30171
-2.3927
-2.46961
-2.533
-2.58439
-2.62557
-2.65824
-2.68392
-2.70388
-2.71913
-2.73046
-2.73846
-2.74356
-2.74604
-2.06303
-2.0893
-2.14869
-2.22856
-2.31597
-2.40169
-2.48042
-2.54967
-2.60882
-2.65831
-2.69909
-2.73225
-2.7589
-2.77999
-2.79637
-2.8087
-2.8175
-2.82316
-2.82592
-2.25457
-2.27013
-2.31246
-2.3727
-2.4417
-2.51222
-2.57943
-2.64059
-2.69446
-2.74079
-2.7799
-2.81241
-2.83903
-2.86045
-2.87732
-2.89016
-2.89942
-2.9054
-2.90833
-2.43145
-2.43995
-2.47041
-2.51639
-2.57118
-2.62913
-2.68613
-2.73951
-2.78779
-2.83031
-2.86699
-2.89806
-2.92393
-2.94506
-2.9619
-2.97485
-2.98426
-2.99038
-2.99338
-2.59584
-2.60003
-2.62234
-2.65803
-2.70194
-2.7497
-2.79792
-2.8442
-2.88702
-2.92552
-2.95935
-2.98851
-3.01314
-3.03352
-3.04994
-3.06268
-3.072
-3.07809
-3.08109
-2.74971
-2.75176
-2.76869
-2.79701
-2.83257
-2.87215
-2.91299
-2.953
-2.99072
-3.02525
-3.0561
-3.08307
-3.10616
-3.12548
-3.1412
-3.1535
-3.16255
-3.16849
-3.17143
-2.8951
-2.89657
-2.90974
-2.93335
-2.96235
-2.99539
-3.03009
-3.06466
-3.09778
-3.12857
-3.15645
-3.18115
-3.20253
-3.2206
-3.23543
-3.24712
-3.25577
-3.26147
-3.26429
-3.03399
-3.03582
-3.0471
-3.06627
-3.09084
-3.11874
-3.14839
-3.17832
-3.20737
-3.2347
-3.25975
-3.28219
-3.30181
-3.31854
-3.33237
-3.34334
-3.35149
-3.35689
-3.35957
-3.16807
-3.17064
-3.18071
-3.19704
-3.21792
-3.24183
-3.26733
-3.29336
-3.31883
-3.34305
-3.36547
-3.38574
-3.40361
-3.41897
-3.43175
-3.44194
-3.44955
-3.4546
-3.45711
-3.29864
-3.30211
-3.31143
-3.32575
-3.34382
-3.36446
-3.38656
-3.40939
-3.43171
-3.45316
-3.47317
-3.4914
-3.50759
-3.52159
-3.53331
-3.5427
-3.54974
-3.55443
-3.55675
-3.42672
-3.43105
-3.43994
-3.45277
-3.46865
-3.48669
-3.50603
-3.52593
-3.54563
-3.56468
-3.58251
-3.59885
-3.61345
-3.62616
-3.63684
-3.64543
-3.65189
-3.65621
-3.65834
-3.55308
-3.55815
-3.56674
-3.57844
-3.59258
-3.60849
-3.62551
-3.64301
-3.66041
-3.67727
-3.69318
-3.70781
-3.72094
-3.73242
-3.74211
-3.74993
-3.75582
-3.75977
-3.76171
-3.67829
-3.68392
-3.69227
-3.70306
-3.71578
-3.72994
-3.745
-3.76046
-3.77587
-3.79082
-3.80497
-3.81805
-3.82983
-3.84019
-3.84893
-3.85602
-3.86137
-3.86498
-3.86668
-3.80274
-3.80876
-3.81687
-3.82688
-3.83842
-3.85109
-3.86448
-3.8782
-3.89187
-3.90515
-3.91774
-3.92942
-3.93997
-3.94925
-3.95713
-3.96353
-3.96838
-3.97172
-3.97308
-3.92673
-3.93296
-3.9408
-3.95012
-3.96063
-3.97202
-3.98399
-3.99619
-4.00834
-4.02014
-4.03135
-4.04176
-4.05118
-4.05949
-4.06656
-4.07231
-4.07667
-4.07963
-4.08097
-4.05045
-4.05674
-4.06428
-4.07295
-4.08254
-4.09282
-4.10353
-4.11441
-4.12521
-4.13571
-4.14568
-4.15494
-4.16334
-4.17076
-4.17708
-4.18223
-4.18614
-4.18878
-4.19003
-4.17406
-4.18028
-4.18745
-4.19551
-4.20426
-4.21354
-4.22314
-4.23285
-4.24246
-4.25178
-4.26064
-4.26887
-4.27634
-4.28294
-4.28858
-4.29317
-4.29666
-4.29901
-4.30015
-4.29766
-4.30368
-4.31045
-4.3179
-4.32588
-4.33425
-4.34284
-4.35149
-4.36003
-4.3683
-4.37616
-4.38345
-4.39008
-4.39594
-4.40094
-4.40501
-4.40812
-4.41021
-4.41124
-4.42131
-4.42705
-4.43337
-4.44021
-4.44745
-4.45498
-4.46266
-4.47035
-4.47792
-4.48524
-4.49217
-4.49862
-4.50447
-4.50964
-4.51406
-4.51767
-4.52041
-4.52226
-4.52318
-4.54505
-4.55044
-4.55627
-4.56251
-4.56904
-4.57577
-4.5826
-4.58941
-4.59609
-4.60254
-4.60864
-4.6143
-4.61944
-4.62398
-4.62786
-4.63103
-4.63344
-4.63506
-4.63588
-4.66891
-4.67389
-4.67921
-4.68483
-4.69068
-4.69666
-4.70269
-4.70868
-4.71454
-4.72017
-4.7255
-4.73044
-4.73492
-4.73888
-4.74226
-4.74502
-4.74712
-4.74853
-4.74926
-4.79292
-4.79744
-4.80222
-4.80723
-4.81239
-4.81765
-4.82292
-4.82814
-4.83322
-4.8381
-4.84271
-4.84698
-4.85084
-4.85426
-4.85717
-4.85955
-4.86136
-4.86258
-4.86322
-4.91709
-4.92111
-4.92533
-4.92972
-4.93421
-4.93876
-4.94331
-4.94779
-4.95214
-4.95631
-4.96023
-4.96387
-4.96715
-4.97006
-4.97253
-4.97456
-4.9761
-4.97713
-4.97768
-5.04144
-5.04492
-5.04856
-5.05232
-5.05615
-5.06
-5.06384
-5.06761
-5.07126
-5.07475
-5.07803
-5.08106
-5.0838
-5.08622
-5.08828
-5.08996
-5.09124
-5.0921
-5.09257
-5.16597
-5.16889
-5.17192
-5.17504
-5.1782
-5.18137
-5.18451
-5.18759
-5.19056
-5.19339
-5.19605
-5.19851
-5.20072
-5.20268
-5.20435
-5.2057
-5.20674
-5.20743
-5.20782
-5.29069
-5.29302
-5.29543
-5.29789
-5.30038
-5.30286
-5.30532
-5.30771
-5.31002
-5.31221
-5.31427
-5.31617
-5.31788
-5.31939
-5.32067
-5.32172
-5.32251
-5.32304
-5.32335
-5.41562
-5.41733
-5.41909
-5.42088
-5.42269
-5.42448
-5.42624
-5.42796
-5.42961
-5.43118
-5.43265
-5.434
-5.43521
-5.43628
-5.43719
-5.43794
-5.4385
-5.43887
-5.43911
-5.54077
-5.54182
-5.54291
-5.54401
-5.54511
-5.5462
-5.54727
-5.54831
-5.54931
-5.55025
-5.55113
-5.55194
-5.55267
-5.55332
-5.55386
-5.55431
-5.55464
-5.55486
-5.55501
-5.66617
-5.66654
-5.66691
-5.66729
-5.66767
-5.66805
-5.66841
-5.66877
-5.6691
-5.66942
-5.66972
-5.66999
-5.67023
-5.67045
-5.67063
-5.67078
-5.67089
-5.67096
-5.67102
)
;

boundaryField
{
    leftWall
    {
        type            calculated;
        value           nonuniform List<scalar> 
50
(
2497.24
2437.08
2375.61
2312.85
2248.84
2183.6
2117.18
2049.64
1942.41
1792.2
1638.48
1482.05
1323.75
1164.46
1005
846.018
688.339
532.859
379.366
227.527
86.7442
9.87095
-2.63785
-2.76203
-2.87702
-2.98283
-3.08036
-3.1728
-3.26331
-3.3538
-3.446
-3.54122
-3.64018
-3.74313
-3.84985
-3.95996
-4.07308
-4.1889
-4.30712
-4.42746
-4.54964
-4.67339
-4.79848
-4.92471
-5.05186
-5.17977
-5.30849
-5.43794
-5.56788
-5.69844
)
;
    }
    rightWall
    {
        type            calculated;
        value           nonuniform List<scalar> 
50
(
-1.26732
-1.32481
-1.38096
-1.43575
-1.48919
-1.54129
-1.59204
-1.64147
-1.71672
-1.81255
-1.90364
-1.99005
-2.07225
-2.15094
-2.22686
-2.30083
-2.37365
-2.44614
-2.51903
-2.59296
-2.66849
-2.74604
-2.82592
-2.90833
-2.99338
-3.08109
-3.17143
-3.26429
-3.35957
-3.45711
-3.55675
-3.65834
-3.76171
-3.86668
-3.97308
-4.08097
-4.19003
-4.30015
-4.41124
-4.52318
-4.63588
-4.74926
-4.86322
-4.97768
-5.09257
-5.20782
-5.32335
-5.43911
-5.55501
-5.67102
)
;
    }
    lowerWall
    {
        type            calculated;
        value           nonuniform List<scalar> 
62
(
2526.67
2530.94
2526.2
2515.23
2500.44
2482.13
2459.66
2432.64
2400.83
2364.24
2323.36
2279.54
2235.46
2196.04
2169.77
2170.6
2220.33
2354.43
2598.46
2974.68
3435.47
3836.62
4080.32
4061.17
4095.09
4101.52
4025.81
3837.07
3511.41
2966.17
2087.33
21.845
-2.44679
-3.06284
-3.37916
-2.08494
-2.14408
-2.20664
-2.27271
-2.34597
-2.4319
-2.54962
-2.71176
-2.05551
-2.07584
-2.0836
-2.06139
-2.01142
-1.9399
-1.85622
-1.76812
-1.68131
-1.5996
-1.52522
-1.4593
-1.40227
-1.35412
-1.31465
-1.2836
-1.26061
-1.24547
-1.23789
)
;
    }
    atmosphere
    {
        type            calculated;
        value           nonuniform List<scalar> 
46
(
-5.76402
-5.76411
-5.76315
-5.76171
-5.75983
-5.75759
-5.75505
-5.75229
-5.74939
-5.74645
-5.74354
-5.74075
-5.73816
-5.73582
-5.7338
-5.73211
-5.7308
-5.72985
-5.72927
-5.72904
-5.72904
-5.72904
-5.72904
-5.72904
-5.72904
-5.72904
-5.72904
-5.72904
-5.72904
-5.72904
-5.72904
-5.72904
-5.72904
-5.72904
-5.72904
-5.72904
-5.72904
-5.72904
-5.72904
-5.72904
-5.72904
-5.72904
-5.72904
-5.72904
-5.72904
-5.72904
)
;
    }
    defaultFaces
    {
        type            empty;
    }
}


// ************************************************************************* //
