/*--------------------------------*- C++ -*----------------------------------*\
| =========                 |                                                 |
| \\      /  F ield         | OpenFOAM: The Open Source CFD Toolbox           |
|  \\    /   O peration     | Version:  5.x                                   |
|   \\  /    A nd           | Web:      www.OpenFOAM.org                      |
|    \\/     M anipulation  |                                                 |
\*---------------------------------------------------------------------------*/
FoamFile
{
    version     2.0;
    format      ascii;
    class       volScalarField;
    location    "0.15";
    object      p_rgh;
}
// * * * * * * * * * * * * * * * * * * * * * * * * * * * * * * * * * * * * * //

dimensions      [1 -1 -2 0 0 0 0];

internalField   nonuniform List<scalar> 
2268
(
2526.67
2530.94
2526.2
2515.23
2500.44
2482.13
2459.66
2432.64
2400.83
2364.24
2323.36
2279.54
2235.46
2196.04
2169.77
2170.6
2220.33
2354.43
2598.46
2974.68
3435.47
3836.62
4080.32
2525.36
2529.58
2524.74
2513.75
2498.96
2480.58
2458
2430.81
2398.74
2361.76
2320.33
2275.69
2230.41
2189.2
2160.24
2156.89
2199.5
2313.02
2536.07
2893.36
3371.69
3834.08
4157.86
2522.76
2526.84
2521.83
2510.81
2495.99
2477.48
2454.68
2427.14
2394.56
2356.83
2314.29
2268.03
2220.34
2175.56
2141.27
2129.83
2160.18
2258.54
2460.05
2788.51
3250.65
3770.83
4208.62
2518.86
2522.76
2517.52
2506.43
2491.55
2472.85
2449.72
2421.69
2388.35
2349.5
2305.33
2256.66
2205.42
2155.34
2113.15
2089.87
2102.83
2177.87
2350.68
2651.29
3094.59
3640.88
4192.92
2513.71
2517.38
2511.85
2500.66
2485.7
2466.76
2443.21
2414.51
2380.19
2339.89
2293.59
2241.79
2185.88
2128.87
2076.33
2037.45
2027.2
2069.67
2201.49
2460.97
2880.62
3436.6
4095.89
2507.33
2510.73
2504.87
2493.55
2478.48
2459.25
2435.19
2405.7
2370.19
2328.13
2279.24
2223.64
2162.06
2096.6
2031.4
1973.26
1933.79
1933.49
2007.58
2197.41
2566
3123.75
3835.13
2499.76
2502.84
2496.6
2485.12
2469.91
2450.35
2425.7
2395.29
2358.41
2314.32
2262.47
2202.48
2134.37
2059.17
1979.25
1898.44
1824.06
1770.7
1766.52
1835.5
2085.04
2617.57
3348.13
2491.09
2493.68
2487.02
2475.38
2460.01
2440.09
2414.77
2383.33
2344.92
2298.59
2243.45
2178.6
2103.29
2017.33
1921.03
1814.91
1700.71
1581.93
1467.49
1334.06
1289.4
1828.83
2528.2
-2.05551
-2.07584
-2.0836
-2.06139
-2.01142
-1.9399
-1.85622
-1.76812
-1.68131
-1.5996
-1.52522
-1.4593
-1.40227
-1.35412
-1.31465
-1.2836
-1.26061
-1.24547
-1.23789
-2.0558
-2.08008
-2.08976
-2.06706
-2.01559
-1.94249
-1.85742
-1.76823
-1.68068
-1.5985
-1.52386
-1.4578
-1.40073
-1.3526
-1.31316
-1.28215
-1.2592
-1.2441
-1.23653
-2.05949
-2.08879
-2.10153
-2.078
-2.02396
-1.94766
-1.85975
-1.76839
-1.67935
-1.59623
-1.52106
-1.45476
-1.39762
-1.34953
-1.31016
-1.27925
-1.25639
-1.24135
-1.23382
-2.06671
-2.10316
-2.12043
-2.09512
-2.03675
-1.9554
-1.86312
-1.76847
-1.6772
-1.59271
-1.51679
-1.45013
-1.3929
-1.34489
-1.30564
-1.27489
-1.25216
-1.23722
-1.22975
-2.0811
-2.12563
-2.14832
-2.11927
-2.05422
-1.96569
-1.86739
-1.7683
-1.6741
-1.58783
-1.51095
-1.44389
-1.38657
-1.33869
-1.29961
-1.26906
-1.24654
-1.23174
-1.22433
-2.10818
-2.15963
-2.18767
-2.15158
-2.07668
-1.97842
-1.87232
-1.76766
-1.66986
-1.58146
-1.50347
-1.43596
-1.37858
-1.33091
-1.29206
-1.26177
-1.23954
-1.22489
-1.21757
-2.16704
-2.21254
-2.24111
-2.19335
-2.10447
-1.99345
-1.87761
-1.76624
-1.66422
-1.57341
-1.49422
-1.42628
-1.36887
-1.32157
-1.28295
-1.25305
-1.23121
-1.21668
-1.20946
-2.27032
-2.28959
-2.31253
-2.24576
-2.13786
-2.01057
-1.88292
-1.76373
-1.65694
-1.56353
-1.4831
-1.41481
-1.35739
-1.31067
-1.27234
-1.24312
-1.22135
-1.20708
-1.20003
2475.87
2477.49
2470.33
2458.39
2442.68
2422.11
2395.65
2362.46
2321.44
2271.27
2210.53
2137.42
2049.83
1945.5
1821.73
1674.13
1490.85
1244.06
874.501
433.627
276.233
532.781
931.835
2450.86
2451.28
2443.36
2431
2414.72
2393.09
2364.93
2329.14
2284.23
2228.34
2159.24
2073.76
1967.71
1836.61
1675.33
1469.43
1186.31
720.466
176.963
26.4659
40.9891
85.247
679.232
2422.33
2421.43
2412.75
2400.05
2383.2
2360.51
2330.7
2292.42
2243.78
2182.4
2105.29
2007.71
1883.86
1729.55
1535.54
1268.86
770.786
118.78
4.56243
3.40556
5.47271
14.1811
365.224
2391.1
2388.86
2379.55
2366.61
2349.26
2325.65
2294.46
2254.1
2202.3
2136.32
2052.31
1943.78
1805.38
1634
1405.29
994.979
177.791
3.19307
-0.538488
-0.642319
-0.259009
1.03603
7.83825
2358
2354.48
2344.75
2331.7
2313.98
2289.74
2257.62
2215.87
2161.91
2092.83
2003.51
1886.45
1739.17
1549.86
1280.24
362.621
4.57611
-0.425448
-0.932354
-1.01526
-1.02946
-1.12763
-0.382572
2323.9
2319.25
2309.36
2296.34
2278.46
2253.95
2221.54
2179.25
2124.51
2054.27
1961.71
1840.95
1690.4
1476.75
764.344
22.4878
0.157993
-0.648591
-0.742629
-0.823419
-0.861223
-0.836308
-0.679102
2289.63
2284.03
2274.25
2261.4
2243.6
2219.27
2187.22
2145.39
2091.5
2022.13
1929.41
1812.42
1658.97
1384.34
220.03
1.24459
-0.4093
-0.46031
-0.479508
-0.487912
-0.437633
-0.189437
0.0172227
2255.85
2249.47
2240.07
2227.53
2210.1
2186.43
2155.47
2115.16
2063.82
1997.25
1909.03
1802.33
1641.78
683.203
4.92365
-0.109689
-0.28336
-0.272198
-0.249816
-0.181211
-0.0496328
0.235031
0.583326
2223.36
2216.4
2207.65
2195.54
2178.76
2156.17
2126.86
2088.93
2041.32
1979.12
1899.56
1802.71
1641.77
216.556
0.718004
-0.106422
-0.0574868
-0.0967222
-0.0697319
0.0087086
0.152651
0.393382
0.710616
2193.08
2185.63
2177.67
2166.03
2150.06
2128.71
2101.18
2065.8
2022.22
1965.91
1895.74
1804.78
1124.24
46.7741
0.386284
0.214442
0.104159
0.0343903
0.0418473
0.0987832
0.219884
0.401317
0.631901
2164.78
2156.68
2149.63
2138.44
2123.47
2103.67
2078.27
2045.23
2005.36
1956.17
1882.07
1685.53
579.118
20.3133
0.737297
0.52865
0.206606
0.0930958
0.0712736
0.112529
0.213169
0.355275
0.518848
2138.13
2127.84
2121.86
2111.02
2096.93
2078.71
2049.95
1974.03
1812.06
1488.4
979.623
462.372
94.3924
41.1676
1.61234
0.490297
0.164093
0.0306034
0.016038
0.0607511
0.158441
0.275164
0.40035
1914.46
1815.86
1789.84
1705.5
1576.24
1392.48
1135.45
788.757
456.369
153.85
-1.46751
-1.50262
-1.38331
40.1756
18.9099
0.064695
-0.182996
-0.176258
-0.115456
-0.0391412
0.0654517
0.178748
0.286548
437.44
330.49
303.253
232.534
148.291
62.5134
-0.518422
-0.829506
-1.1584
-1.50001
-1.61891
-1.74649
-1.75734
3.37069
22.0204
3.3187
-0.870974
-0.510412
-0.314253
-0.172954
-0.0400881
0.0826605
0.185111
-0.351663
-0.356395
-0.393932
-0.451217
-0.534751
-0.636725
-0.698844
-0.831604
-1.06592
-1.37155
-1.6883
-2.0224
-2.20846
-2.19422
22.2409
4.51925
-1.55926
-0.843475
-0.529755
-0.305856
-0.137073
-0.00425948
0.0991432
-0.350645
-0.362385
-0.390462
-0.434419
-0.495509
-0.570724
-0.656657
-0.786116
-0.993455
-1.31541
-1.77264
-2.3188
-2.72127
-2.6631
13.4374
2.91807
-1.81951
-1.06991
-0.674923
-0.399197
-0.210078
-0.070672
0.0321177
-0.340445
-0.352303
-0.373571
-0.406513
-0.452182
-0.511012
-0.589109
-0.706374
-0.894456
-1.22887
-1.76945
-1.77167
-1.51083
-1.92319
1.73425
-0.608635
-1.79335
-1.12087
-0.711295
-0.433591
-0.247159
-0.111787
-0.0147987
-0.321059
-0.329573
-0.345306
-0.36923
-0.402355
-0.446411
-0.507518
-0.599026
-0.750309
-1.05074
-1.59697
-0.921894
0.165317
0.116963
-0.374993
-2.4015
-1.51329
-0.995549
-0.648665
-0.412186
-0.24857
-0.128376
-0.0428087
-0.29339
-0.298938
-0.309777
-0.326149
-0.348601
-0.378663
-0.42019
-0.479881
-0.578946
-0.790355
-1.19038
-1.03517
0.35176
-0.70933
-2.10663
-1.65503
-1.09686
-0.771213
-0.528148
-0.352792
-0.223456
-0.125763
-0.0552959
-0.260641
-0.264223
-0.271012
-0.281187
-0.295017
-0.31335
-0.338157
-0.371836
-0.425314
-0.536593
-0.75481
-1.03485
-1.26266
-1.33863
-1.25986
-0.998219
-0.725228
-0.551502
-0.399071
-0.279768
-0.185381
-0.111513
-0.056899
-0.225957
-0.227936
-0.231635
-0.237099
-0.244482
-0.254239
-0.26752
-0.285266
-0.3123
-0.366515
-0.468237
-0.602943
-0.710281
-0.740685
-0.695023
-0.58748
-0.474313
-0.382684
-0.290059
-0.211656
-0.145853
-0.0925743
-0.0522189
-0.191248
-0.191994
-0.193469
-0.195619
-0.198539
-0.202538
-0.208408
-0.216875
-0.230228
-0.255504
-0.300428
-0.360747
-0.413447
-0.433739
-0.412596
-0.369714
-0.317956
-0.264297
-0.207225
-0.155795
-0.110824
-0.0734679
-0.0447376
-0.15825
-0.158201
-0.158189
-0.158178
-0.158234
-0.158632
-0.159954
-0.162893
-0.169012
-0.181865
-0.204678
-0.234542
-0.26109
-0.274879
-0.272634
-0.248087
-0.216487
-0.181958
-0.145962
-0.112135
-0.0818248
-0.0562609
-0.0365247
-0.128275
-0.127802
-0.126875
-0.125549
-0.123895
-0.122176
-0.120833
-0.120416
-0.122019
-0.127654
-0.138691
-0.153177
-0.166228
-0.173656
-0.172881
-0.162012
-0.144307
-0.123132
-0.100507
-0.0784988
-0.0584978
-0.041554
-0.0285987
-0.10204
-0.101362
-0.099941
-0.0978856
-0.0953045
-0.0924378
-0.0896469
-0.0873855
-0.0864277
-0.0879705
-0.0927394
-0.099669
-0.1062
-0.10991
-0.108956
-0.102674
-0.0928652
-0.0804424
-0.066605
-0.052738
-0.0400197
-0.0293299
-0.0214033
-0.0798018
-0.0790124
-0.0773707
-0.0749739
-0.0719678
-0.0685657
-0.0650759
-0.0618876
-0.0595701
-0.0588297
-0.0600356
-0.0627088
-0.0655833
-0.0671515
-0.0663068
-0.0628328
-0.0569708
-0.0496656
-0.041457
-0.033151
-0.0255559
-0.0193575
-0.0151061
-0.0613301
-0.0604832
-0.0587829
-0.0562912
-0.0531647
-0.0495936
-0.0458417
-0.0422395
-0.0392143
-0.0372175
-0.036472
-0.036775
-0.0375149
-0.0378584
-0.0371304
-0.0350849
-0.0317147
-0.0276028
-0.0230151
-0.0184334
-0.0143835
-0.0113568
-0.00974283
-0.046243
-0.045386
-0.0437183
-0.0412782
-0.0382084
-0.0346831
-0.0309309
-0.0272313
-0.0239134
-0.0212977
-0.0195576
-0.0186216
-0.0181811
-0.0177967
-0.0170878
-0.0158195
-0.0137994
-0.011887
-0.00965817
-0.00753686
-0.00588918
-0.00505151
-0.0052831
-0.0341698
-0.0333436
-0.0317547
-0.0294402
-0.0265199
-0.0231534
-0.0195389
-0.0159127
-0.0125352
-0.00964863
-0.007407
-0.00582682
-0.00477775
-0.00402601
-0.00334194
-0.00264169
-0.00206278
-0.000970828
-0.000133561
0.000403502
0.0004574
-0.000176725
-0.00165808
-0.0247902
-0.0240198
-0.0225267
-0.0203631
-0.0176296
-0.014469
-0.0110542
-0.00758586
-0.00427868
-0.0013306
0.00111778
0.00301003
0.00437879
0.00532767
0.00598178
0.0064096
0.00661638
0.00674796
0.0065965
0.0060889
0.00510345
0.00351151
0.00122199
-0.0178172
-0.0171095
-0.0157122
-0.0136968
-0.0111531
-0.00820407
-0.00500262
-0.00172146
0.00145766
0.00436597
0.00687097
0.00889372
0.0104146
0.0114643
0.0121002
0.0123696
0.012301
0.0119392
0.0111781
0.0100245
0.0083975
0.00622066
0.00345032
-0.0129667
-0.0123148
-0.0110058
-0.00912424
-0.00675354
-0.00399896
-0.000997243
0.0021005
0.00513684
0.00796333
0.0104547
0.0125207
0.0141128
0.0152204
0.0158585
0.0160513
0.0158148
0.0151448
0.0140946
0.0125897
0.0106096
0.00812062
0.00511282
-0.00995149
-0.00934478
-0.00811438
-0.00634903
-0.00412698
-0.00154012
0.00128803
0.00422358
0.00712756
0.00986602
0.0123197
0.0143937
0.0160237
0.0171753
0.0178381
0.0180172
0.0177237
0.0169614
0.0157543
0.0140852
0.0119538
0.00935004
0.00628489
-0.00850405
-0.00793185
-0.00676993
-0.00510227
-0.00300227
-0.000553359
0.00213255
0.00493533
0.00772974
0.0103923
0.0128091
0.0148844
0.0165459
0.0177459
0.0184587
0.0186763
0.018403
0.0176457
0.0164228
0.0147296
0.0125938
0.0100192
0.00703001
-0.00840165
-0.00785472
-0.00674993
-0.0051603
-0.00315527
-0.000813046
0.00176469
0.00446831
0.00718228
0.00979085
0.0121853
0.0142711
0.0159727
0.0172352
0.0180234
0.0183205
0.0181244
0.0174408
0.01628
0.014684
0.0126535
0.0102135
0.0073992
-0.009439
-0.00891092
-0.0078529
-0.00632451
-0.00439134
-0.00212766
0.000373499
0.00301005
0.00567331
0.00825355
0.0106469
0.0127611
0.0145195
0.0158633
0.0167518
0.0171622
0.0170882
0.0165374
0.0155255
0.0140808
0.0122275
0.00999746
0.00743099
-0.011387
-0.0108745
-0.00985531
-0.00837766
-0.00650115
-0.00429675
-0.0018505
0.000741106
0.00337491
0.00594673
0.00835734
0.0105171
0.0123493
0.0137927
0.0148031
0.0153544
0.0154377
0.01506
0.0142389
0.013001
0.0113804
0.00941582
0.0071513
-0.014103
-0.0136065
-0.0126145
-0.0111749
-0.00933801
-0.00717306
-0.00476125
-0.00219484
0.00042792
0.00300814
0.00545109
0.00766988
0.00958858
0.0111452
0.0122939
0.0130063
0.0132718
0.0130955
0.0124961
0.0115028
0.0101554
0.00849627
0.00657424
-0.0176277
-0.0171554
-0.0161752
-0.0147538
-0.012931
-0.0107757
-0.00836633
-0.0057922
-0.00314781
-0.00052812
0.00197531
0.00427766
0.00630403
0.00799268
0.0092975
0.0101894
0.0106565
0.0107031
0.010348
0.00962268
0.00857485
0.00725056
0.0057031
-0.0218912
-0.0214531
-0.0204811
-0.0190683
-0.0172449
-0.0150793
-0.0126486
-0.0100396
-0.00734382
-0.00465367
-0.00205888
0.000356736
0.0025187
0.00436525
0.00584988
0.0069427
0.00763071
0.00791748
0.00782204
0.00737939
0.00664359
0.00567477
0.00452931
-0.0266294
-0.0262386
-0.0252896
-0.0238891
-0.0220648
-0.0198863
-0.0174301
-0.0147806
-0.0120263
-0.00925686
-0.00656046
-0.00401992
-0.00170937
0.000309102
0.00198795
0.00329563
0.0042172
0.00475432
0.00492583
0.00476869
0.00434804
0.00375186
0.00303714
-0.0319943
-0.0317739
-0.0308488
-0.0294404
-0.027595
-0.0253837
-0.0228815
-0.0201694
-0.0173327
-0.014459
-0.0116349
-0.00894227
-0.0064553
-0.00423698
-0.0023368
-0.000789119
0.00038756
0.00119104
0.00163522
0.00174717
0.00162088
0.00141516
0.00116838
208.848
-1.97592
-2.59197
-2.90829
360.413
16.4292
-1.50518
-2.18373
437.664
133.649
-2.07723
-2.94209
300.434
243.224
15.1569
-5.36835
26.8507
186.96
81.64
-3.13737
1.97818
18.0677
83.5304
43.3852
0.768228
2.17177
13.9887
27.739
1.09538
1.70106
2.30684
2.31489
1.05865
1.32479
1.54621
1.51067
0.818778
0.934184
1.01242
1.01166
0.629606
0.688459
0.724845
0.729264
0.476735
0.515307
0.54051
0.548638
0.348012
0.379199
0.401142
0.412096
0.240749
0.269118
0.289725
0.301704
0.152853
0.180258
0.20057
0.213548
0.084201
0.11083
0.130883
0.14448
0.0340162
0.0590889
0.0781658
0.0916037
0.000553171
0.0229621
0.0401961
0.0526692
-0.0190089
-0.000102228
0.0145968
0.0254376
-0.0282474
-0.0132029
-0.00140882
0.00740772
-0.0307494
-0.0194247
-0.0105218
-0.00384156
-0.029394
-0.021313
-0.0149994
-0.0103151
-0.0260919
-0.0206599
-0.0165069
-0.0135408
-0.0219652
-0.0186133
-0.0161868
-0.0146285
-0.0176432
-0.0158834
-0.0147974
-0.0143535
-0.0134776
-0.0129098
-0.0128388
-0.0132499
-0.00966162
-0.00996484
-0.0106406
-0.0116845
-0.00629295
-0.007212
-0.00841605
-0.00990662
-0.00340615
-0.00474015
-0.00629698
-0.00808127
-0.000994869
-0.0025879
-0.00435888
-0.00631378
0.000968911
-0.00076347
-0.00264065
-0.00466879
0.00252137
0.000741047
-0.00115891
-0.0031841
0.00370004
0.00194147
8.28821e-05
-0.00188025
0.00453996
0.00285623
0.00108819
-0.000767418
0.00507073
0.00350228
0.0018624
0.000149193
0.00531457
0.00389222
0.00240945
0.000865556
0.00528536
0.00403298
0.00273006
0.00137689
0.00498895
0.00392577
0.00282143
0.00167683
0.00442398
0.00356658
0.00267729
0.00175717
0.00358009
0.00294414
0.00228564
0.00160544
0.00244433
0.00204687
0.001636
0.00121212
0.000962196
0.000823262
0.000679392
0.000530806
-2.59506
-2.49459
-2.46701
-2.35049
-2.2002
-2.04041
-1.89054
-1.75731
-1.64237
-1.54474
-1.46248
-1.3939
-1.33647
-1.29139
-1.25375
-1.22488
-1.20376
-1.19
-1.18325
-2.89287
-3.03843
-2.85123
-2.57764
-2.31444
-2.08377
-1.89302
-1.73689
-1.61035
-1.50775
-1.4239
-1.35677
-1.30098
-1.25657
-1.22103
-1.1937
-1.17376
-1.16058
-1.15388
-4.09288
-4.07863
-3.48343
-2.87169
-2.43149
-2.10773
-1.87401
-1.69633
-1.56142
-1.45728
-1.37437
-1.30882
-1.25628
-1.21455
-1.18165
-1.15647
-1.13803
-1.12578
-1.11979
-6.09294
-5.51243
-4.22742
-3.13562
-2.49458
-2.07894
-1.81842
-1.62854
-1.49084
-1.38898
-1.31118
-1.2507
-1.20306
-1.1655
-1.13608
-1.11361
-1.09694
-1.08626
-1.081
-6.5075
-6.06045
-4.525
-3.1667
-2.43992
-1.97894
-1.70098
-1.51912
-1.39346
-1.30281
-1.23495
-1.18279
-1.14202
-1.11003
-1.08502
-1.06532
-1.05147
-1.04246
-1.03801
-1.8828
-5.32934
-4.32996
-2.96368
-2.15413
-1.75464
-1.52011
-1.37115
-1.27158
-1.2005
-1.14739
-1.10644
-1.07435
-1.04915
-1.02851
-1.0133
-1.00227
-0.995061
-0.991498
18.1896
1.54134
-3.71113
-2.43213
-1.71102
-1.42958
-1.28669
-1.19441
-1.13199
-1.08663
-1.05175
-1.02397
-1.00167
-0.983197
-0.969129
-0.958186
-0.950145
-0.944853
-0.942226
9.94902
6.63159
-0.83352
-1.36345
-1.13256
-1.05788
-1.03116
-1.00639
-0.985383
-0.967684
-0.95242
-0.938315
-0.926162
-0.916004
-0.90768
-0.901026
-0.896023
-0.892676
-0.890997
1.03367
1.47099
0.275928
-0.509225
-0.660901
-0.740545
-0.797281
-0.828362
-0.843502
-0.850529
-0.852524
-0.852461
-0.850598
-0.848043
-0.845364
-0.842886
-0.84084
-0.839387
-0.838632
0.889342
0.602383
0.233675
-0.147717
-0.373731
-0.51738
-0.613899
-0.674761
-0.71498
-0.741385
-0.758499
-0.769641
-0.776637
-0.780908
-0.783416
-0.784802
-0.785505
-0.785817
-0.785926
0.688941
0.520556
0.268281
0.00583072
-0.203061
-0.356503
-0.468227
-0.547347
-0.603458
-0.643308
-0.671591
-0.691699
-0.705934
-0.715955
-0.72294
-0.727714
-0.730851
-0.732737
-0.733617
0.534945
0.431647
0.261092
0.0658515
-0.108661
-0.250433
-0.361607
-0.446312
-0.510059
-0.557791
-0.593421
-0.619967
-0.639675
-0.65422
-0.664835
-0.672414
-0.677597
-0.680818
-0.682357
0.412333
0.346347
0.225435
0.0806837
-0.0595733
-0.18269
-0.285368
-0.368173
-0.433641
-0.484811
-0.524503
-0.555114
-0.578575
-0.596402
-0.609758
-0.619518
-0.626324
-0.630618
-0.632689
0.30739
0.265045
0.180776
0.0737852
-0.037176
-0.140717
-0.2317
-0.30861
-0.372006
-0.423399
-0.464571
-0.497244
-0.522928
-0.542886
-0.558134
-0.569461
-0.577465
-0.582566
-0.585043
0.223165
0.196895
0.137503
0.057634
-0.0297758
-0.115499
-0.194225
-0.263475
-0.322627
-0.372121
-0.412897
-0.446063
-0.472705
-0.4938
-0.510177
-0.522508
-0.531313
-0.536969
-0.539728
0.156811
0.141254
0.0989203
0.038684
-0.0303162
-0.10083
-0.168045
-0.229205
-0.283074
-0.329404
-0.368519
-0.40103
-0.427646
-0.449069
-0.465934
-0.478778
-0.488033
-0.494016
-0.496946
0.10513
0.0966249
0.0661711
0.0201881
-0.0346031
-0.0925517
-0.14955
-0.202932
-0.251207
-0.29373
-0.33041
-0.361485
-0.387355
-0.408482
-0.42532
-0.438273
-0.44768
-0.453796
-0.456802
0.0659362
0.0617456
0.0394355
0.00374108
-0.0401625
-0.0879227
-0.136149
-0.182431
-0.225242
-0.263742
-0.29758
-0.326732
-0.351365
-0.371743
-0.388162
-0.400907
-0.410227
-0.416317
-0.41932
0.0372606
0.0352044
0.0182793
-0.0100386
-0.0456002
-0.0851804
-0.126022
-0.166028
-0.203751
-0.238283
-0.269132
-0.296103
-0.319193
-0.338514
-0.354232
-0.366531
-0.375581
-0.381522
-0.384459
0.0170659
0.0155971
0.0024207
-0.0211851
-0.0501901
-0.083225
-0.117926
-0.152497
-0.185621
-0.216403
-0.244288
-0.268982
-0.290367
-0.308441
-0.323272
-0.334958
-0.343605
-0.349305
-0.35213
0.00336806
0.00154038
-0.00974655
-0.0289087
-0.0534818
-0.0813865
-0.111033
-0.140959
-0.170008
-0.197339
-0.222396
-0.244831
-0.264453
-0.281182
-0.295014
-0.305981
-0.314136
-0.319532
-0.322211
-0.00551503
-0.0080892
-0.018158
-0.034484
-0.0553697
-0.0792761
-0.10478
-0.130807
-0.156279
-0.180494
-0.202919
-0.223185
-0.24106
-0.256416
-0.269196
-0.279384
-0.286993
-0.292045
-0.294556
-0.0108896
-0.0143601
-0.0236866
-0.0380014
-0.0560749
-0.0767146
-0.0988157
-0.121641
-0.143966
-0.165408
-0.185425
-0.203654
-0.219845
-0.233848
-0.245568
-0.254956
-0.261991
-0.266679
-0.269007
-0.0137782
-0.0181121
-0.0269967
-0.0398312
-0.05571
-0.0737458
-0.0930871
-0.112988
-0.132689
-0.15174
-0.169565
-0.185909
-0.200513
-0.213217
-0.223898
-0.23249
-0.238948
-0.243265
-0.245401
-0.0149484
-0.0200157
-0.0286071
-0.0403082
-0.0544472
-0.070358
-0.0873763
-0.104873
-0.122278
-0.139133
-0.155041
-0.169678
-0.182808
-0.194289
-0.203975
-0.211794
-0.217688
-0.221638
-0.223573
-0.0149593
-0.0205906
-0.028944
-0.0397321
-0.0524546
-0.066607
-0.0816661
-0.097129
-0.112536
-0.127488
-0.141642
-0.154716
-0.166504
-0.176865
-0.185604
-0.192689
-0.198043
-0.201652
-0.203353
-0.014215
-0.0202314
-0.0283472
-0.0383597
-0.0498933
-0.0625632
-0.0759584
-0.0896771
-0.103344
-0.116622
-0.129219
-0.140892
-0.151445
-0.160727
-0.168602
-0.175005
-0.179854
-0.183196
-0.184555
-0.013006
-0.0192357
-0.0270839
-0.0364034
-0.0469092
-0.0583049
-0.0702669
-0.0824736
-0.0946179
-0.106419
-0.117629
-0.128036
-0.137464
-0.14577
-0.152839
-0.15859
-0.16295
-0.165915
-0.167252
-0.0115384
-0.0178262
-0.0253627
-0.0340365
-0.043628
-0.0539063
-0.0646154
-0.0754968
-0.0863001
-0.0967917
-0.106762
-0.116026
-0.124431
-0.131846
-0.138168
-0.143315
-0.147224
-0.149866
-0.151116
-0.00995584
-0.0161676
-0.0233443
-0.0313974
-0.0401545
-0.0494335
-0.0590305
-0.068737
-0.0783482
-0.0876706
-0.096527
-0.10476
-0.112235
-0.118835
-0.124469
-0.12906
-0.13255
-0.134905
-0.136044
-0.0083571
-0.0143804
-0.0211509
-0.0285947
-0.036574
-0.0449428
-0.0535376
-0.0621895
-0.0707309
-0.0790016
-0.0868527
-0.0941504
-0.100777
-0.106633
-0.111633
-0.115711
-0.118814
-0.120906
-0.121934
-0.00680888
-0.0125517
-0.0188743
-0.0257125
-0.0329538
-0.0404799
-0.0481582
-0.0558517
-0.063423
-0.0707395
-0.0776768
-0.0841217
-0.0899735
-0.0951452
-0.0995632
-0.103168
-0.105912
-0.107761
-0.108682
-0.00535562
-0.0107437
-0.0165825
-0.0228144
-0.029346
-0.0360802
-0.042909
-0.0497206
-0.0564025
-0.0628453
-0.0689455
-0.0746081
-0.0797475
-0.0842892
-0.0881695
-0.0913361
-0.0937473
-0.0953712
-0.096192
-0.00402687
-0.00900118
-0.0143257
-0.0199482
-0.0257898
-0.0317703
-0.0378013
-0.0437915
-0.049649
-0.0552839
-0.0606108
-0.0655503
-0.0700308
-0.0739889
-0.0773703
-0.0801299
-0.0822314
-0.0836456
-0.0843722
-0.00284301
-0.00735629
-0.0121409
-0.0171489
-0.0223139
-0.0275688
-0.0328415
-0.0380577
-0.0431426
-0.0480229
-0.0526286
-0.0568943
-0.0607607
-0.0641746
-0.0670904
-0.0694696
-0.0712815
-0.0724993
-0.0731369
-0.00181928
-0.00583307
-0.0100553
-0.0144424
-0.0189383
-0.0234875
-0.0280314
-0.0325098
-0.0368626
-0.0410306
-0.0449572
-0.0485895
-0.0518786
-0.0547812
-0.0572592
-0.0592808
-0.0608201
-0.0618527
-0.0624057
-0.000968276
-0.0044499
-0.00808902
-0.0118467
-0.0156764
-0.0195327
-0.0233685
-0.027136
-0.0307874
-0.034276
-0.0375568
-0.0405876
-0.0433294
-0.0457473
-0.0478104
-0.049493
-0.0507741
-0.0516307
-0.0521027
-0.000301326
-0.00322134
-0.00625692
-0.00937443
-0.0125362
-0.0157061
-0.018847
-0.0219221
-0.0248944
-0.027728
-0.0303881
-0.0328422
-0.0350601
-0.0370144
-0.0386811
-0.0400398
-0.0410741
-0.0417623
-0.0421557
0.000170664
-0.0021593
-0.00456988
-0.00703349
-0.00952102
-0.0120049
-0.0144575
-0.0168513
-0.0191592
-0.0213547
-0.0234123
-0.025308
-0.0270194
-0.0285263
-0.0298106
-0.030857
-0.0316536
-0.032179
-0.0324952
0.000434947
-0.00127547
-0.00303725
-0.00482963
-0.00663189
-0.0084247
-0.010189
-0.011906
-0.0135573
-0.015125
-0.0165918
-0.0179414
-0.0191584
-0.0202291
-0.021141
-0.0218837
-0.0224493
-0.0228165
-0.0230545
0.0004831
-0.000575198
-0.00166075
-0.00276031
-0.00386148
-0.00495284
-0.00602332
-0.00706215
-0.0080588
-0.00900303
-0.00988501
-0.0106954
-0.0114254
-0.012067
-0.0126132
-0.0130577
-0.0133967
-0.0136091
-0.0137668
0.000274929
-9.428e-05
-0.000471736
-0.000852219
-0.00123135
-0.00160522
-0.0019702
-0.00232283
-0.00265984
-0.00297805
-0.00327445
-0.00354614
-0.00379042
-0.00400479
-0.004187
-0.00433503
-0.00444883
-0.00451605
-0.00457445
)
;

boundaryField
{
    leftWall
    {
        type            fixedFluxPressure;
        gradient        uniform 0;
        value           nonuniform List<scalar> 
50
(
2526.67
2525.36
2522.76
2518.86
2513.71
2507.33
2499.76
2491.09
2475.87
2450.86
2422.33
2391.1
2358
2323.9
2289.63
2255.85
2223.36
2193.08
2164.78
2138.13
1914.46
437.44
-0.351663
-0.350645
-0.340445
-0.321059
-0.29339
-0.260641
-0.225957
-0.191248
-0.15825
-0.128275
-0.10204
-0.0798018
-0.0613301
-0.046243
-0.0341698
-0.0247902
-0.0178172
-0.0129667
-0.00995149
-0.00850405
-0.00840165
-0.009439
-0.011387
-0.014103
-0.0176277
-0.0218912
-0.0266294
-0.0319943
)
;
    }
    rightWall
    {
        type            fixedFluxPressure;
        gradient        uniform 0;
        value           nonuniform List<scalar> 
50
(
-1.23789
-1.23653
-1.23382
-1.22975
-1.22433
-1.21757
-1.20946
-1.20003
-1.18325
-1.15388
-1.11979
-1.081
-1.03801
-0.991498
-0.942226
-0.890997
-0.838632
-0.785926
-0.733617
-0.682357
-0.632689
-0.585043
-0.539728
-0.496946
-0.456802
-0.41932
-0.384459
-0.35213
-0.322211
-0.294556
-0.269007
-0.245401
-0.223573
-0.203353
-0.184555
-0.167252
-0.151116
-0.136044
-0.121934
-0.108682
-0.096192
-0.0843722
-0.0731369
-0.0624057
-0.0521027
-0.0421557
-0.0324952
-0.0230545
-0.0137668
-0.00457445
)
;
    }
    lowerWall
    {
        type            fixedFluxPressure;
        gradient        uniform 0;
        value           nonuniform List<scalar> 
62
(
2526.67
2530.94
2526.2
2515.23
2500.44
2482.13
2459.66
2432.64
2400.83
2364.24
2323.36
2279.54
2235.46
2196.04
2169.77
2170.6
2220.33
2354.43
2598.46
2974.68
3435.47
3836.62
4080.32
4080.32
4157.86
4208.62
4192.92
4095.89
3835.13
3348.13
2528.2
208.848
-1.97592
-2.59197
-2.90829
-2.05551
-2.0558
-2.05949
-2.06671
-2.0811
-2.10818
-2.16704
-2.27032
-2.05551
-2.07584
-2.0836
-2.06139
-2.01142
-1.9399
-1.85622
-1.76812
-1.68131
-1.5996
-1.52522
-1.4593
-1.40227
-1.35412
-1.31465
-1.2836
-1.26061
-1.24547
-1.23789
)
;
    }
    atmosphere
    {
        type            totalPressure;
        rho             rho;
        psi             none;
        gamma           1;
        p0              uniform 0;
        value           nonuniform List<scalar> 
46
(
-0.0349766
-0.0350711
-0.0341079
-0.0326663
-0.0307915
-0.0285476
-0.0260059
-0.0232451
-0.0203493
-0.0174053
-0.0144991
-0.0117125
-0.0091198
-0.00678449
-0.00475719
-0.00307395
-0.00175587
-0.000809739
-0.000230253
-4.43674e-06
0
0
0
0
0
0
0
0
0
0
0
0
0
0
0
0
0
0
0
0
0
0
0
0
0
0
)
;
    }
    defaultFaces
    {
        type            empty;
    }
}


// ************************************************************************* //
