/*--------------------------------*- C++ -*----------------------------------*\
| =========                 |                                                 |
| \\      /  F ield         | OpenFOAM: The Open Source CFD Toolbox           |
|  \\    /   O peration     | Version:  5.x                                   |
|   \\  /    A nd           | Web:      www.OpenFOAM.org                      |
|    \\/     M anipulation  |                                                 |
\*---------------------------------------------------------------------------*/
FoamFile
{
    version     2.0;
    format      ascii;
    class       surfaceScalarField;
    location    "0.15";
    object      phi;
}
// * * * * * * * * * * * * * * * * * * * * * * * * * * * * * * * * * * * * * //

dimensions      [0 3 -1 0 0 0 0];

internalField   nonuniform List<scalar> 
4432
(
4.29094e-06
-4.29094e-06
1.10987e-05
-6.80775e-06
1.78529e-05
-6.75417e-06
2.42596e-05
-6.4067e-06
3.0598e-05
-6.3384e-06
3.7083e-05
-6.48509e-06
4.38191e-05
-6.73607e-06
5.0845e-05
-7.02589e-06
5.81718e-05
-7.3268e-06
6.57931e-05
-7.62128e-06
7.36789e-05
-7.8858e-06
8.17648e-05
-8.08586e-06
8.99154e-05
-8.15064e-06
9.78709e-05
-7.95554e-06
0.000105211
-7.34037e-06
0.000111317
-6.10583e-06
0.000115136
-3.81912e-06
0.000114502
6.33772e-07
0.000104805
9.69758e-06
8.05464e-05
2.42585e-05
4.14154e-05
3.9131e-05
1.73979e-06
3.96756e-05
1.73979e-06
4.3253e-06
-8.61623e-06
1.11152e-05
-1.35977e-05
1.78713e-05
-1.35102e-05
2.42899e-05
-1.28253e-05
3.06357e-05
-1.26842e-05
3.71289e-05
-1.29783e-05
4.38746e-05
-1.34818e-05
5.09115e-05
-1.40628e-05
5.82527e-05
-1.46681e-05
6.58936e-05
-1.52622e-05
7.38035e-05
-1.57957e-05
8.19238e-05
-1.62062e-05
9.01383e-05
-1.63651e-05
9.82148e-05
-1.6032e-05
0.00010576
-1.48854e-05
0.00011217
-1.25161e-05
0.00011662
-8.26895e-06
0.000118424
-1.17003e-06
0.000117103
1.10188e-05
0.000109198
3.21629e-05
8.58319e-05
6.24972e-05
4.24057e-05
8.31018e-05
4.41455e-05
4.35029e-06
-1.29665e-05
1.10987e-05
-2.0346e-05
1.78104e-05
-2.0222e-05
2.41995e-05
-1.92144e-05
3.05233e-05
-1.9008e-05
3.70001e-05
-1.94551e-05
4.37335e-05
-2.02152e-05
5.07616e-05
-2.10908e-05
5.81006e-05
-2.20071e-05
6.57496e-05
-2.29112e-05
7.36846e-05
-2.37306e-05
8.18601e-05
-2.43817e-05
9.01803e-05
-2.46854e-05
9.84451e-05
-2.42967e-05
0.000106311
-2.27513e-05
0.000113251
-1.94558e-05
0.000118477
-1.34955e-05
0.000120611
-3.30384e-06
0.000118094
1.35353e-05
0.000110097
4.01606e-05
9.39143e-05
7.86796e-05
5.74529e-05
0.000119563
0.000101598
4.38218e-06
-1.73487e-05
1.10824e-05
-2.70463e-05
1.77294e-05
-2.6869e-05
2.40708e-05
-2.55557e-05
3.03637e-05
-2.53009e-05
3.68203e-05
-2.59117e-05
4.35398e-05
-2.69348e-05
5.05599e-05
-2.81109e-05
5.79011e-05
-2.93483e-05
6.55688e-05
-3.05788e-05
7.3551e-05
-3.17129e-05
8.18208e-05
-3.26515e-05
9.03049e-05
-3.31695e-05
9.88437e-05
-3.28355e-05
0.000107173
-3.10802e-05
0.00011486
-2.7143e-05
0.000121137
-1.97728e-05
0.000124745
-6.91121e-06
0.000123617
1.46631e-05
0.000114896
4.88815e-05
9.65415e-05
9.7034e-05
6.11198e-05
0.000154985
0.000162718
4.42144e-06
-2.17701e-05
1.10646e-05
-3.36894e-05
1.76279e-05
-3.34323e-05
2.39057e-05
-3.18335e-05
3.01599e-05
-3.15552e-05
3.65934e-05
-3.23453e-05
4.3298e-05
-3.36394e-05
5.0311e-05
-3.51239e-05
5.76584e-05
-3.66957e-05
6.53538e-05
-3.82742e-05
7.34015e-05
-3.97606e-05
8.17965e-05
-4.10465e-05
9.04871e-05
-4.18601e-05
9.93654e-05
-4.17139e-05
0.000108278
-3.99931e-05
0.000116907
-3.57718e-05
0.000124539
-2.74047e-05
0.000129999
-1.2371e-05
0.000131487
1.31751e-05
0.000125135
5.52332e-05
0.000104335
0.000117834
6.6167e-05
0.000193153
0.000228885
4.47245e-06
-2.62426e-05
1.10454e-05
-4.02623e-05
1.75044e-05
-3.98913e-05
2.37045e-05
-3.80336e-05
2.99135e-05
-3.77642e-05
3.63201e-05
-3.87518e-05
4.30061e-05
-4.03254e-05
5.00084e-05
-4.21261e-05
5.73592e-05
-4.40465e-05
6.50818e-05
-4.59967e-05
7.32005e-05
-4.78793e-05
8.17335e-05
-4.95795e-05
9.06493e-05
-5.07759e-05
9.99006e-05
-5.09652e-05
0.000109466
-4.95589e-05
0.000119158
-4.54631e-05
0.000128349
-3.65961e-05
0.000136127
-2.01486e-05
0.000141388
7.9138e-06
0.000140153
5.64677e-05
0.000119131
0.000138856
7.58484e-05
0.000236436
0.000304734
4.53639e-06
-3.0779e-05
1.10178e-05
-4.67438e-05
1.73507e-05
-4.62242e-05
2.34598e-05
-4.41426e-05
2.96148e-05
-4.39192e-05
3.59857e-05
-4.51227e-05
4.2643e-05
-4.69827e-05
4.96237e-05
-4.91068e-05
5.6967e-05
-5.13898e-05
6.47073e-05
-5.3737e-05
7.28907e-05
-5.60627e-05
8.15571e-05
-5.82459e-05
9.07029e-05
-5.99217e-05
0.000100354
-6.06159e-05
0.000110615
-5.98198e-05
0.000121438
-5.62862e-05
0.000132363
-4.75216e-05
0.00014295
-3.07352e-05
0.000153279
-2.41491e-06
0.000159265
5.04818e-05
0.000138121
0.00016
8.80943e-05
0.000286462
0.000392828
4.60531e-06
-3.53843e-05
1.09655e-05
-5.3104e-05
1.71578e-05
-5.24165e-05
2.31647e-05
-5.01495e-05
2.92536e-05
-5.00081e-05
3.55753e-05
-5.14444e-05
4.2189e-05
-5.35964e-05
4.91332e-05
-5.60511e-05
5.64549e-05
-5.87115e-05
6.42008e-05
-6.14829e-05
7.2437e-05
-6.42989e-05
8.12219e-05
-6.70308e-05
9.05928e-05
-6.92926e-05
0.00010066
-7.06834e-05
0.00011162
-7.07793e-05
0.00012358
-6.8246e-05
0.000136441
-6.03834e-05
0.000150185
-4.44785e-05
0.000165855
-1.80856e-05
0.000177628
3.87096e-05
0.000147448
0.000190179
9.08006e-05
0.00034311
0.000483628
-1.08495e-05
1.08495e-05
-1.66179e-05
5.76832e-06
-1.92571e-05
2.63936e-06
-1.93343e-05
7.71126e-08
-1.79091e-05
-1.42537e-06
-1.56908e-05
-2.21819e-06
-1.32115e-05
-2.47948e-06
-1.07828e-05
-2.42861e-06
-8.58116e-06
-2.20181e-06
-6.67494e-06
-1.90618e-06
-5.09235e-06
-1.58276e-06
-3.81766e-06
-1.27468e-06
-2.81599e-06
-1.00173e-06
-2.01193e-06
-8.04132e-07
-1.41671e-06
-5.95169e-07
-9.41699e-07
-4.75211e-07
-5.73687e-07
-3.6781e-07
-2.76315e-07
-2.97552e-07
-2.76061e-07
-1.24062e-05
2.32558e-05
-1.77232e-05
1.10851e-05
-1.96908e-05
4.60695e-06
-1.93367e-05
-2.77032e-07
-1.76279e-05
-3.13448e-06
-1.51639e-05
-4.68198e-06
-1.24703e-05
-5.17338e-06
-9.89832e-06
-5.00047e-06
-7.6159e-06
-4.48454e-06
-5.70656e-06
-3.81535e-06
-4.16411e-06
-3.12536e-06
-2.95604e-06
-2.48272e-06
-2.03528e-06
-1.92238e-06
-1.36622e-06
-1.47348e-06
-8.7602e-07
-1.08531e-06
-5.4263e-07
-8.08934e-07
-3.13732e-07
-5.96354e-07
-1.46853e-07
-4.65254e-07
-4.22677e-07
-1.35815e-05
3.68374e-05
-1.89487e-05
1.64522e-05
-2.06312e-05
6.2893e-06
-1.99113e-05
-9.96928e-07
-1.79254e-05
-5.12063e-06
-1.52856e-05
-7.32163e-06
-1.25087e-05
-7.95039e-06
-9.90464e-06
-7.60418e-06
-7.61901e-06
-6.77033e-06
-5.70876e-06
-5.72532e-06
-4.17004e-06
-4.66403e-06
-2.96801e-06
-3.68496e-06
-2.05349e-06
-2.83708e-06
-1.37862e-06
-2.14863e-06
-8.93047e-07
-1.57076e-06
-5.54454e-07
-1.14799e-06
-3.22864e-07
-8.27633e-07
-1.53221e-07
-6.35459e-07
-5.75679e-07
-1.61122e-05
5.29496e-05
-2.12708e-05
2.16108e-05
-2.21445e-05
7.16282e-06
-2.07592e-05
-2.38228e-06
-1.83517e-05
-7.52825e-06
-1.5421e-05
-1.02521e-05
-1.24707e-05
-1.09009e-05
-9.77662e-06
-1.0298e-05
-7.48056e-06
-9.06662e-06
-5.58264e-06
-7.62333e-06
-4.05392e-06
-6.19302e-06
-2.84959e-06
-4.88939e-06
-1.95673e-06
-3.72964e-06
-1.31875e-06
-2.78662e-06
-8.36634e-07
-2.05278e-06
-5.16132e-07
-1.469e-06
-2.94831e-07
-1.04863e-06
-1.37767e-07
-7.92883e-07
-7.1327e-07
-2.01923e-05
7.31419e-05
-2.45943e-05
2.60127e-05
-2.42158e-05
6.78422e-06
-2.18861e-05
-4.71204e-06
-1.88679e-05
-1.05467e-05
-1.55949e-05
-1.35248e-05
-1.24124e-05
-1.40838e-05
-9.60844e-06
-1.3102e-05
-7.2173e-06
-1.14581e-05
-5.30219e-06
-9.53842e-06
-3.80176e-06
-7.69335e-06
-2.67654e-06
-6.01454e-06
-1.79169e-06
-4.61438e-06
-1.17143e-06
-3.40718e-06
-7.36072e-07
-2.48808e-06
-4.47758e-07
-1.75766e-06
-2.44447e-07
-1.25159e-06
-1.13888e-07
-9.23696e-07
-8.2703e-07
-2.51703e-05
9.83121e-05
-2.85858e-05
2.94281e-05
-2.68643e-05
5.06257e-06
-2.33206e-05
-8.25566e-06
-1.95014e-05
-1.43662e-05
-1.56952e-05
-1.7331e-05
-1.22388e-05
-1.75403e-05
-9.29249e-06
-1.60483e-05
-6.88175e-06
-1.38689e-05
-4.97533e-06
-1.14447e-05
-3.50239e-06
-9.16625e-06
-2.39947e-06
-7.11755e-06
-1.60662e-06
-5.40729e-06
-1.00563e-06
-4.00856e-06
-6.24231e-07
-2.86942e-06
-3.48932e-07
-2.03318e-06
-1.86698e-07
-1.41352e-06
-8.55413e-08
-1.02507e-06
-9.12481e-07
-3.31703e-05
0.000131482
-3.39699e-05
3.02277e-05
-3.01591e-05
1.25165e-06
-2.52982e-05
-1.31164e-05
-2.02636e-05
-1.94007e-05
-1.58595e-05
-2.17351e-05
-1.20539e-05
-2.13458e-05
-8.93063e-06
-1.91712e-05
-6.51061e-06
-1.62888e-05
-4.6138e-06
-1.33414e-05
-3.17961e-06
-1.06005e-05
-2.09751e-06
-8.19976e-06
-1.33213e-06
-6.17267e-06
-8.27776e-07
-4.51317e-06
-4.57047e-07
-3.24005e-06
-2.51251e-07
-2.23919e-06
-1.17725e-07
-1.54684e-06
-5.07467e-08
-1.09222e-06
-9.63161e-07
-4.1683e-05
0.000173165
-4.21146e-05
3.06593e-05
-3.43185e-05
-6.54461e-06
-2.75132e-05
-1.99217e-05
-2.11976e-05
-2.57164e-05
-1.59237e-05
-2.70088e-05
-1.17343e-05
-2.55353e-05
-8.45631e-06
-2.24492e-05
-5.96232e-06
-1.87828e-05
-4.095e-06
-1.52088e-05
-2.71853e-06
-1.19771e-05
-1.74386e-06
-9.17451e-06
-1.05016e-06
-6.86632e-06
-5.78558e-07
-4.98489e-06
-2.97274e-07
-3.52122e-06
-1.14089e-07
-2.42254e-06
-3.45059e-08
-1.62632e-06
-8.8817e-09
-1.11792e-06
-9.71999e-07
9.85797e-06
-4.52422e-05
2.30924e-05
-6.63384e-05
3.56983e-05
-6.50224e-05
4.80508e-05
-6.2502e-05
6.07277e-05
-6.26851e-05
7.39448e-05
-6.46615e-05
8.77948e-05
-6.74464e-05
0.00010237
-7.06259e-05
0.000117796
-7.41383e-05
0.000134214
-7.79008e-05
0.000151815
-8.18999e-05
0.000170771
-8.59869e-05
0.000191319
-8.98403e-05
0.000213911
-9.32753e-05
0.000238978
-9.58465e-05
0.000267112
-9.63795e-05
0.00030002
-9.32913e-05
0.000338303
-8.2762e-05
0.000372476
-5.22586e-05
0.000360207
5.09785e-05
0.000292251
0.000258135
0.000220867
0.000414494
0.000550689
0.000153807
9.98606e-06
-5.52283e-05
2.25311e-05
-7.88834e-05
3.43808e-05
-7.68721e-05
4.61602e-05
-7.42813e-05
5.83938e-05
-7.49187e-05
7.12143e-05
-7.7482e-05
8.46818e-05
-8.09138e-05
9.89027e-05
-8.48468e-05
0.00011404
-8.92756e-05
0.000130279
-9.41396e-05
0.00014786
-9.94809e-05
0.000167027
-0.000105154
0.000188191
-0.000111004
0.000211882
-0.000116966
0.000238533
-0.000122498
0.000269201
-0.000127048
0.000304222
-0.000128312
0.000339505
-0.000118045
0.000357142
-6.98952e-05
0.000320764
8.73567e-05
0.000277472
0.000301427
0.000240842
0.000451124
0.000598062
0.000193469
1.00243e-05
-6.52526e-05
2.17442e-05
-9.06034e-05
3.27315e-05
-8.78594e-05
4.3863e-05
-8.54128e-05
5.55512e-05
-8.66069e-05
6.78357e-05
-8.97666e-05
8.07597e-05
-9.38379e-05
9.44477e-05
-9.85348e-05
0.000109094
-0.000103922
0.000124906
-0.000109951
0.000142144
-0.000116719
0.000161148
-0.000124158
0.000182351
-0.000132207
0.000205954
-0.000140568
0.000232873
-0.000149417
0.000264314
-0.000158488
0.000298348
-0.000162347
0.000314795
-0.000134492
0.000293568
-4.8668e-05
0.000278511
0.000102413
0.000249337
0.000330601
0.000211904
0.000488557
0.000588257
0.000221709
9.93393e-06
-7.51865e-05
2.07044e-05
-0.000101374
3.07731e-05
-9.7928e-05
4.11898e-05
-9.58295e-05
5.22191e-05
-9.76363e-05
6.38195e-05
-0.000101367
7.60319e-05
-0.00010605
8.89988e-05
-0.000111502
0.000102938
-0.000117861
0.000118045
-0.000125058
0.000134618
-0.000133292
0.000153087
-0.000142627
0.000173544
-0.000152665
0.000195941
-0.000162966
0.000222419
-0.000175895
0.000252426
-0.000188495
0.000268971
-0.000178892
0.000247722
-0.000113243
0.000194552
4.50113e-06
0.000167062
0.000129904
0.000181618
0.000316045
0.000185971
0.000484204
0.000550665
0.000223563
9.70394e-06
-8.48905e-05
1.94126e-05
-0.000111083
2.85243e-05
-0.00010704
3.81574e-05
-0.000105463
4.84058e-05
-0.000107885
5.91691e-05
-0.00011213
7.04965e-05
-0.000117378
8.25459e-05
-0.000123551
9.55454e-05
-0.000130861
0.000109661
-0.000139174
0.000125315
-0.000148946
0.000142844
-0.000160156
0.000161768
-0.000171589
0.000182952
-0.00018415
0.000207358
-0.000200301
0.000230089
-0.000211227
0.000208705
-0.000157508
0.0001396
-4.41372e-05
6.67664e-05
7.73339e-05
4.23963e-05
0.000154273
8.83679e-05
0.000270073
0.000140031
0.000432541
0.000495149
0.000195547
9.3296e-06
-9.42201e-05
1.7884e-05
-0.000119637
2.60139e-05
-0.00011517
3.47912e-05
-0.00011424
4.41348e-05
-0.000117228
5.39124e-05
-0.000121908
6.41863e-05
-0.000127652
7.51256e-05
-0.00013449
8.69487e-05
-0.000142684
9.98116e-05
-0.000152037
0.000114313
-0.000163447
0.000130321
-0.000176164
0.000147458
-0.000188725
0.000168417
-0.000205109
0.000194134
-0.000226018
0.000186544
-0.000203637
0.000125547
-9.65105e-05
2.91093e-05
5.22996e-05
-2.83292e-05
0.000134773
-4.21932e-05
0.000168138
-1.09194e-05
0.000238799
5.98121e-05
0.00036181
0.000416116
0.000138845
8.80325e-06
-0.000103023
1.61453e-05
-0.000126979
2.32816e-05
-0.000122306
3.11304e-05
-0.000122089
3.94537e-05
-0.000125552
4.81137e-05
-0.000130568
5.71854e-05
-0.000136723
6.68405e-05
-0.000144145
7.72563e-05
-0.0001531
8.86287e-05
-0.000163409
0.000101492
-0.000176311
0.000115109
-0.00018978
0.000130871
-0.000204487
0.000149539
-0.000223777
0.000164282
-0.00024076
0.000129506
-0.000168861
3.27283e-05
2.67209e-07
-4.37434e-05
0.000128771
-7.09824e-05
0.000162012
-8.21121e-05
0.000179267
-6.72528e-05
0.000223939
-6.37567e-06
0.000300933
0.000339082
7.06583e-05
8.13685e-06
-0.00011116
1.42441e-05
-0.000133086
2.03902e-05
-0.000128452
2.72491e-05
-0.000128948
3.4463e-05
-0.000132765
4.19068e-05
-0.000138012
4.96585e-05
-0.000144475
5.78608e-05
-0.000152348
6.6596e-05
-0.000161835
7.60848e-05
-0.000172898
8.62377e-05
-0.000186464
9.67464e-05
-0.000200289
0.000112488
-0.000220229
0.000133725
-0.000245014
0.000118844
-0.000225879
4.76392e-05
-9.76566e-05
-3.88749e-05
8.67812e-05
-6.58554e-05
0.000155751
-7.29365e-05
0.000169093
-7.9198e-05
0.000185528
-7.04802e-05
0.000215222
-2.9288e-05
0.00025974
0.000286227
2.35671e-05
7.37201e-06
-0.000118532
1.22675e-05
-0.000137982
1.74486e-05
-0.000133633
2.32857e-05
-0.000134785
2.93396e-05
-0.000138819
3.5495e-05
-0.000144167
4.17949e-05
-0.000150775
4.82725e-05
-0.000158825
5.48213e-05
-0.000168384
6.15357e-05
-0.000179612
6.75908e-05
-0.000192519
7.54032e-05
-0.000208102
8.96736e-05
-0.0002345
0.000100023
-0.000255364
7.15364e-05
-0.000197392
-1.01622e-05
-1.59583e-05
-5.33306e-05
0.00012995
-5.44086e-05
0.000156829
-5.46624e-05
0.000169347
-5.54999e-05
0.000186366
-4.77849e-05
0.000207507
-2.08649e-05
0.00023282
0.000250049
1.53122e-05
6.57246e-06
-0.000125105
1.02978e-05
-0.000141707
1.45431e-05
-0.000137878
1.9334e-05
-0.000139576
2.41526e-05
-0.000143638
2.8865e-05
-0.00014888
3.34103e-05
-0.00015532
3.76425e-05
-0.000163057
4.12742e-05
-0.000172015
4.43878e-05
-0.000182726
4.6931e-05
-0.000195062
5.54995e-05
-0.00021667
6.98512e-05
-0.000248851
6.40724e-05
-0.000249585
2.3433e-05
-0.000156752
-2.88177e-05
3.62919e-05
-3.82243e-05
0.000139357
-3.1927e-05
0.000150531
-3.25471e-05
0.000169966
-3.10005e-05
0.00018482
-2.3915e-05
0.000200421
-6.05004e-06
0.000214955
0.000225075
1.89232e-05
5.7485e-06
-0.000130853
8.25662e-06
-0.000144215
1.15184e-05
-0.00014114
1.51455e-05
-0.000143203
1.85149e-05
-0.000147007
2.14664e-05
-0.000151831
2.38674e-05
-0.000157721
2.5593e-05
-0.000164783
2.68252e-05
-0.000173248
2.86489e-05
-0.00018455
3.46498e-05
-0.000201063
5.03206e-05
-0.000232341
6.17607e-05
-0.000260291
5.2225e-05
-0.000240049
2.49442e-05
-0.000129473
-1.73173e-06
6.29678e-05
-4.51727e-06
0.000142142
-9.60983e-06
0.000155623
-1.34255e-05
0.000173782
-1.33336e-05
0.000184728
-7.53272e-06
0.00019462
5.07732e-06
0.000202344
0.000206452
2.37006e-05
4.77594e-06
-0.000135629
5.866e-06
-0.000145305
8.02136e-06
-0.000143296
1.03364e-05
-0.000145518
1.21804e-05
-0.000148851
1.35275e-05
-0.000153178
1.4651e-05
-0.000158845
1.62219e-05
-0.000166354
2.0697e-05
-0.000177723
3.16867e-05
-0.000195539
5.49915e-05
-0.000224368
8.22256e-05
-0.000259575
8.32187e-05
-0.000261285
7.11739e-05
-0.000228004
7.73902e-05
-0.000135689
6.17821e-05
7.85757e-05
3.20324e-05
0.000171892
1.01327e-05
0.000177523
4.5584e-07
0.000183459
-2.65985e-06
0.000187843
8.60404e-07
0.0001911
1.06869e-05
0.000192518
0.000191584
2.55547e-05
3.60212e-06
-0.000139231
3.2899e-06
-0.000144993
4.54399e-06
-0.00014455
6.08024e-06
-0.000147054
7.74836e-06
-0.00015052
1.02791e-05
-0.000155709
1.54833e-05
-0.000164049
2.50176e-05
-0.000175888
4.61506e-05
-0.000198856
9.1412e-05
-0.000240801
0.000136903
-0.000269859
0.000148018
-0.00027069
9.95733e-05
-0.00021284
6.79791e-05
-0.00019641
8.48692e-05
-0.000152579
0.000107327
5.61176e-05
5.90338e-05
0.000220185
2.22472e-05
0.000214309
6.36973e-06
0.000199336
5.13155e-07
0.000193699
2.50138e-06
0.000189111
1.02188e-05
0.0001848
0.000179643
2.21597e-05
2.80788e-06
-0.000142039
2.25868e-06
-0.000144444
4.15918e-06
-0.00014645
7.48511e-06
-0.00015038
1.40273e-05
-0.000157062
2.76585e-05
-0.00016934
4.90006e-05
-0.000185391
7.67366e-05
-0.000203624
0.000109558
-0.000231677
0.000135666
-0.000266909
0.000155266
-0.000289459
0.000154076
-0.0002695
0.000120922
-0.000179688
6.91807e-05
-0.000144668
5.59956e-05
-0.000139394
8.75583e-05
2.45547e-05
5.01982e-05
0.000257545
1.81271e-05
0.000246381
1.56671e-06
0.000215896
-3.55786e-06
0.000198824
-1.67769e-06
0.000187231
4.98547e-06
0.000178137
0.000169646
1.49825e-05
3.20284e-06
-0.000145242
6.71589e-06
-0.000147957
1.21122e-05
-0.000151846
1.94166e-05
-0.000157684
2.97425e-05
-0.000167387
4.15221e-05
-0.00018112
5.59767e-05
-0.000199845
7.46157e-05
-0.000222263
9.718e-05
-0.000254242
0.000122184
-0.000291912
0.000141959
-0.000309234
0.000146308
-0.000273848
0.000137509
-0.000170889
8.20487e-05
-8.92076e-05
4.70764e-05
-0.000104422
2.96e-05
4.20311e-05
8.63707e-06
0.000278508
-9.13429e-06
0.000264152
-1.5416e-05
0.000222178
-1.53776e-05
0.000198785
-1.1125e-05
0.000182978
-3.74295e-06
0.000170755
0.000160246
5.65745e-06
2.96766e-06
-0.000148209
6.76935e-06
-0.000151758
1.11927e-05
-0.000156269
1.62436e-05
-0.000162735
2.21796e-05
-0.000173323
2.86575e-05
-0.000187597
3.54258e-05
-0.000206613
4.48602e-05
-0.000231697
5.93972e-05
-0.000268779
7.89585e-05
-0.000311474
9.42914e-05
-0.000324567
9.36594e-05
-0.000273216
8.58349e-05
-0.000163064
6.89677e-05
-7.23405e-05
1.28259e-05
-4.828e-05
-3.68882e-05
9.17453e-05
-5.0397e-05
0.000292017
-4.53628e-05
0.000259118
-3.94143e-05
0.000216229
-3.22338e-05
0.000191605
-2.39804e-05
0.000174725
-1.46831e-05
0.000161458
0.000150358
-4.79538e-06
1.35221e-06
-0.000149562
2.98303e-06
-0.000153389
4.53557e-06
-0.000157822
6.19584e-06
-0.000164395
7.357e-06
-0.000174484
7.8747e-06
-0.000188115
7.59662e-06
-0.000206335
8.03833e-06
-0.000232139
1.06835e-05
-0.000271424
1.31228e-05
-0.000313913
8.61969e-06
-0.000320064
-6.48604e-06
-0.000258111
-9.47303e-06
-0.000160077
-2.05535e-05
-6.126e-05
-7.39382e-05
5.10463e-06
-0.000132037
0.000149844
-0.000114515
0.000274495
-8.50915e-05
0.000229694
-6.56868e-05
0.000196825
-5.09316e-05
0.00017685
-3.81144e-05
0.000161908
-2.63692e-05
0.000149712
0.000139397
-1.54085e-05
-7.80752e-07
-0.000148781
-1.58545e-06
-0.000152584
-2.90537e-06
-0.000156502
-4.68992e-06
-0.00016261
-7.72502e-06
-0.000171449
-1.24771e-05
-0.000183363
-1.97462e-05
-0.000199066
-2.9991e-05
-0.000221894
-4.50444e-05
-0.00025637
-6.70519e-05
-0.000291905
-9.18662e-05
-0.00029525
-0.000111568
-0.000238409
-0.000129553
-0.000142092
-0.000146897
-4.3916e-05
-0.000193106
5.13134e-05
-0.000211901
0.00016864
-0.000160473
0.000223066
-0.000116253
0.000185474
-8.8216e-05
0.000168787
-6.76931e-05
0.000156327
-5.11718e-05
0.000145386
-3.73253e-05
0.000135866
0.000127354
-2.52829e-05
-2.71749e-06
-0.000146063
-5.66435e-06
-0.000149637
-9.29956e-06
-0.000152867
-1.39245e-05
-0.000157985
-2.02661e-05
-0.000165107
-2.92014e-05
-0.000174427
-4.20726e-05
-0.000186195
-6.1705e-05
-0.000202262
-9.27738e-05
-0.000225301
-0.000135639
-0.000249041
-0.000180489
-0.000250399
-0.000213019
-0.000205879
-0.000235238
-0.000119873
-0.00026014
-1.90144e-05
-0.000274892
6.60656e-05
-0.00024176
0.000135508
-0.000176515
0.000157821
-0.00013259
0.00014155
-0.00010255
0.000138747
-7.96282e-05
0.000133405
-6.13366e-05
0.000127095
-4.63524e-05
0.000120882
0.000114658
-3.36557e-05
-4.28061e-06
-0.000141783
-9.00011e-06
-0.000144918
-1.4453e-05
-0.000147414
-2.11503e-05
-0.000151288
-2.97696e-05
-0.000156488
-4.12336e-05
-0.000162963
-5.69721e-05
-0.000170456
-8.0263e-05
-0.000178971
-0.000116142
-0.000189422
-0.000166155
-0.000199027
-0.000222606
-0.000193949
-0.000269504
-0.000158981
-0.000294825
-9.45519e-05
-0.000294854
-1.89857e-05
-0.000273821
4.50327e-05
-0.000225536
8.72228e-05
-0.000170766
0.000103051
-0.000135637
0.000106421
-0.000108119
0.000111229
-8.59402e-05
0.000111227
-6.7844e-05
0.000108998
-5.28311e-05
0.000105869
0.000101926
-4.00997e-05
-5.54966e-06
-0.000136233
-1.15713e-05
-0.000138896
-1.83291e-05
-0.000140656
-2.63355e-05
-0.000143281
-3.61921e-05
-0.000146632
-4.86582e-05
-0.000150497
-6.4717e-05
-0.000154397
-8.62067e-05
-0.000157481
-0.000116415
-0.000159213
-0.000157342
-0.0001581
-0.000203584
-0.000147706
-0.000242514
-0.000120051
-0.000261833
-7.52328e-05
-0.000256083
-2.4736e-05
-0.000229742
1.86923e-05
-0.000191928
4.9408e-05
-0.000156644
6.77668e-05
-0.000130535
8.03119e-05
-0.000107295
8.79891e-05
-8.75954e-05
9.15269e-05
-7.09436e-05
9.23467e-05
-5.67476e-05
9.16726e-05
8.97181e-05
-4.45396e-05
-6.43875e-06
-0.000129794
-1.33065e-05
-0.000132028
-2.08669e-05
-0.000133096
-2.95381e-05
-0.00013461
-3.98063e-05
-0.000136364
-5.22271e-05
-0.000138076
-6.73634e-05
-0.000139261
-8.57834e-05
-0.00013906
-0.000108549
-0.000136448
-0.000136653
-0.000129996
-0.000167412
-0.000116948
-0.000193092
-9.43707e-05
-0.000205444
-6.28803e-05
-0.000201661
-2.85198e-05
-0.000184058
1.08914e-06
-0.000162251
2.76007e-05
-0.000141281
4.67974e-05
-0.000121602
6.0632e-05
-0.000102825
6.9212e-05
-8.6093e-05
7.47952e-05
-7.13918e-05
7.76453e-05
-5.84756e-05
7.87563e-05
7.84046e-05
-4.71622e-05
-6.96816e-06
-0.000122826
-1.43075e-05
-0.000124689
-2.22476e-05
-0.000125155
-3.11065e-05
-0.000125751
-4.12354e-05
-0.000126235
-5.29916e-05
-0.00012632
-6.66914e-05
-0.000125561
-8.2441e-05
-0.000123311
-0.000100127
-0.000118761
-0.00011939
-0.000110733
-0.000138696
-9.76423e-05
-0.000154498
-7.85688e-05
-0.00016266
-5.47182e-05
-0.000161639
-2.95407e-05
-0.00015412
-6.42989e-06
-0.00014122
1.47004e-05
-0.000126719
3.22958e-05
-0.000111424
4.53374e-05
-9.65484e-05
5.43363e-05
-8.26394e-05
6.08862e-05
-6.9962e-05
6.49677e-05
-5.85059e-05
6.73002e-05
6.81763e-05
-4.82778e-05
-7.20196e-06
-0.000115624
-1.47153e-05
-0.000117176
-2.27096e-05
-0.000117161
-3.14229e-05
-0.000117037
-4.10857e-05
-0.000116572
-5.18997e-05
-0.000115506
-6.40017e-05
-0.000113459
-7.7384e-05
-0.000109928
-9.17798e-05
-0.000104365
-0.000106459
-9.60536e-05
-0.00012002
-8.40818e-05
-0.000130498
-6.80898e-05
-0.000136053
-4.91636e-05
-0.000136137
-2.94569e-05
-0.000131911
-1.06559e-05
-0.000123822
6.6113e-06
-0.000113162
2.16358e-05
-0.000101335
3.35099e-05
-8.95419e-05
4.25435e-05
-7.80696e-05
4.94137e-05
-6.72823e-05
5.41804e-05
-5.72945e-05
5.73124e-05
5.90919e-05
-4.82101e-05
-7.19135e-06
-0.000108433
-1.46397e-05
-0.000109727
-2.2446e-05
-0.000109354
-3.07868e-05
-0.000108697
-3.98023e-05
-0.000107556
-4.95964e-05
-0.000105712
-6.01908e-05
-0.000102864
-7.14757e-05
-9.86434e-05
-8.31642e-05
-9.26766e-05
-9.46582e-05
-8.45595e-05
-0.000104895
-7.38444e-05
-0.000112554
-6.04313e-05
-0.000116655
-4.50629e-05
-0.000117061
-2.90505e-05
-0.000114259
-1.34576e-05
-0.000108529
8.80846e-07
-0.000100741
1.38481e-05
-9.17447e-05
2.45132e-05
-8.236e-05
3.31587e-05
-7.2931e-05
3.99847e-05
-6.38247e-05
4.50742e-05
-5.52147e-05
4.87025e-05
5.11226e-05
-4.72453e-05
-6.99723e-06
-0.000101436
-1.42037e-05
-0.000102521
-2.16611e-05
-0.000101897
-2.9492e-05
-0.000100866
-3.77734e-05
-9.92744e-05
-4.65421e-05
-9.69428e-05
-5.57571e-05
-9.36492e-05
-6.5259e-05
-8.91415e-05
-7.47595e-05
-8.31759e-05
-8.3816e-05
-7.55029e-05
-9.175e-05
-6.59103e-05
-9.77127e-05
-5.44685e-05
-0.00010105
-4.17257e-05
-0.000101617
-2.84831e-05
-9.96399e-05
-1.54351e-05
-9.55617e-05
-3.19742e-06
-8.96942e-05
7.98055e-06
-8.278e-05
1.7599e-05
-7.5288e-05
2.56668e-05
-6.75604e-05
3.22572e-05
-5.99154e-05
3.74293e-05
-5.25493e-05
4.13364e-05
4.41905e-05
-4.56171e-05
-6.67305e-06
-9.47626e-05
-1.35106e-05
-9.56831e-05
-2.05172e-05
-9.489e-05
-2.7766e-05
-9.36169e-05
-3.52937e-05
-9.17468e-05
-4.30936e-05
-8.9143e-05
-5.10968e-05
-8.5646e-05
-5.91516e-05
-8.10867e-05
-6.70133e-05
-7.53141e-05
-7.43183e-05
-6.81979e-05
-8.05691e-05
-5.96595e-05
-8.52361e-05
-4.98015e-05
-8.7958e-05
-3.90039e-05
-8.86311e-05
-2.781e-05
-8.73366e-05
-1.67297e-05
-8.43544e-05
-6.17964e-06
-7.99004e-05
3.52651e-06
-7.45016e-05
1.22001e-05
-6.84943e-05
1.96596e-05
-6.21648e-05
2.59278e-05
-5.57702e-05
3.10348e-05
-4.95021e-05
3.50683e-05
3.81975e-05
-4.35091e-05
-6.26643e-06
-8.84961e-05
-1.26547e-05
-8.92949e-05
-1.91505e-05
-8.8394e-05
-2.57877e-05
-8.69798e-05
-3.25759e-05
-8.49586e-05
-3.94851e-05
-8.22339e-05
-4.64355e-05
-7.86956e-05
-5.32856e-05
-7.42366e-05
-5.98327e-05
-6.87669e-05
-6.58075e-05
-6.22231e-05
-7.08683e-05
-5.45987e-05
-7.46589e-05
-4.60109e-05
-7.69306e-05
-3.67323e-05
-7.76085e-05
-2.71322e-05
-7.67589e-05
-1.75793e-05
-7.45597e-05
-8.37889e-06
-7.11431e-05
1.09903e-07
-6.69096e-05
7.96665e-06
-6.20728e-05
1.48228e-05
-5.68786e-05
2.07336e-05
-5.15379e-05
2.56941e-05
-4.62222e-05
2.97526e-05
3.30402e-05
-4.1065e-05
-5.81092e-06
-8.26853e-05
-1.17058e-05
-8.34002e-05
-1.76615e-05
-8.24382e-05
-2.36852e-05
-8.09563e-05
-2.9768e-05
-7.88758e-05
-3.58684e-05
-7.61335e-05
-4.19073e-05
-7.26568e-05
-4.7763e-05
-6.83809e-05
-5.32714e-05
-6.32585e-05
-5.82251e-05
-5.72693e-05
-6.23823e-05
-5.04415e-05
-6.55086e-05
-4.28846e-05
-6.74388e-05
-3.4802e-05
-6.8113e-05
-2.6458e-05
-6.7568e-05
-1.81243e-05
-6.59002e-05
-1.00467e-05
-6.33442e-05
-2.44606e-06
-5.99652e-05
4.58755e-06
-5.60496e-05
1.09072e-05
-5.17781e-05
1.64621e-05
-4.73193e-05
2.12353e-05
-4.28202e-05
2.52534e-05
2.86174e-05
-3.83975e-05
-5.32776e-06
-7.73577e-05
-1.07118e-05
-7.8016e-05
-1.61204e-05
-7.70298e-05
-2.1546e-05
-7.55309e-05
-2.69675e-05
-7.34542e-05
-3.23398e-05
-7.07614e-05
-3.75889e-05
-6.74078e-05
-4.26119e-05
-6.3358e-05
-4.72776e-05
-5.85927e-05
-5.14298e-05
-5.3117e-05
-5.48965e-05
-4.69748e-05
-5.75166e-05
-4.02644e-05
-5.91767e-05
-3.31418e-05
-5.98323e-05
-2.58022e-05
-5.95046e-05
-1.8452e-05
-5.82667e-05
-1.12846e-05
-5.62571e-05
-4.45568e-06
-5.35799e-05
1.91031e-06
-5.04105e-05
7.73776e-06
-4.68958e-05
1.29473e-05
-4.31753e-05
1.75147e-05
-3.93736e-05
2.14516e-05
2.48358e-05
-3.55921e-05
-4.83142e-06
-7.25264e-05
-9.70364e-06
-7.31436e-05
-1.45731e-05
-7.21607e-05
-1.94261e-05
-7.06781e-05
-2.4234e-05
-6.86464e-05
-2.89516e-05
-6.60439e-05
-3.3513e-05
-6.28466e-05
-3.78323e-05
-5.90387e-05
-4.18055e-05
-5.46194e-05
-4.5314e-05
-4.96084e-05
-4.82338e-05
-4.40548e-05
-5.04529e-05
-3.80451e-05
-5.18918e-05
-3.17027e-05
-5.25166e-05
-2.51772e-05
-5.23415e-05
-1.8627e-05
-5.14224e-05
-1.22037e-05
-4.98445e-05
-6.03354e-06
-4.77108e-05
-2.23461e-07
-4.51371e-05
5.16406e-06
-4.2243e-05
1.00531e-05
-3.91412e-05
1.44129e-05
-3.5935e-05
1.82453e-05
2.16122e-05
-3.27114e-05
-4.33376e-06
-6.81925e-05
-8.70283e-06
-6.87746e-05
-1.30506e-05
-6.78132e-05
-1.73609e-05
-6.63677e-05
-2.16018e-05
-6.44056e-05
-2.57301e-05
-6.19158e-05
-2.96882e-05
-5.88885e-05
-3.34051e-05
-5.53217e-05
-3.67986e-05
-5.12257e-05
-3.97786e-05
-4.66282e-05
-4.22546e-05
-4.15787e-05
-4.41468e-05
-3.61526e-05
-4.53991e-05
-3.04502e-05
-4.59872e-05
-2.4589e-05
-4.59203e-05
-1.86938e-05
-4.5238e-05
-1.2886e-05
-4.39998e-05
-7.27172e-06
-4.22952e-05
-1.92809e-06
-4.02005e-05
3.06938e-06
-3.78177e-05
7.67024e-06
-3.52358e-05
1.1831e-05
-3.25387e-05
1.55482e-05
1.88736e-05
-2.98001e-05
-3.84612e-06
-6.43462e-05
-7.72562e-06
-6.48954e-05
-1.15735e-05
-6.39653e-05
-1.53723e-05
-6.25689e-05
-1.90892e-05
-6.06889e-05
-2.26842e-05
-5.83208e-05
-2.6108e-05
-5.54647e-05
-2.93022e-05
-5.21273e-05
-3.22019e-05
-4.8326e-05
-3.47381e-05
-4.40919e-05
-3.68442e-05
-3.94726e-05
-3.84626e-05
-3.4534e-05
-3.95534e-05
-2.93593e-05
-4.00988e-05
-2.40434e-05
-4.01053e-05
-1.86871e-05
-3.96019e-05
-1.33893e-05
-3.86357e-05
-8.23793e-06
-3.72646e-05
-3.29917e-06
-3.55652e-05
1.3699e-06
-3.36076e-05
5.71265e-06
-3.14652e-05
9.68846e-06
-2.92055e-05
1.32884e-05
1.65575e-05
-2.68893e-05
-3.37634e-06
-6.09699e-05
-6.78334e-06
-6.14886e-05
-1.01549e-05
-6.05937e-05
-1.34719e-05
-5.9252e-05
-1.67031e-05
-5.74579e-05
-1.98124e-05
-5.52116e-05
-2.27577e-05
-5.25193e-05
-2.54916e-05
-4.93934e-05
-2.79625e-05
-4.58551e-05
-3.01179e-05
-4.19366e-05
-3.19078e-05
-3.76826e-05
-3.32904e-05
-3.31513e-05
-3.42369e-05
-2.84127e-05
-3.47347e-05
-2.35455e-05
-3.47892e-05
-1.86325e-05
-3.44229e-05
-1.37555e-05
-3.36714e-05
-8.98936e-06
-3.25766e-05
-4.39398e-06
-3.11988e-05
-8.00723e-09
-2.95957e-05
4.10939e-06
-2.78268e-05
7.91949e-06
-2.59451e-05
1.14067e-05
1.46112e-05
-2.39989e-05
-2.92771e-06
-5.80424e-05
-5.88158e-06
-5.85347e-05
-8.80001e-06
-5.76753e-05
-1.16631e-05
-5.63892e-05
-1.4442e-05
-5.46791e-05
-1.71051e-05
-5.25484e-05
-1.96173e-05
-5.00072e-05
-2.19397e-05
-4.70711e-05
-2.40318e-05
-4.37632e-05
-2.5853e-05
-4.01153e-05
-2.73663e-05
-3.61693e-05
-2.85407e-05
-3.19767e-05
-2.93556e-05
-2.75977e-05
-2.98022e-05
-2.30988e-05
-2.98853e-05
-1.85493e-05
-2.96224e-05
-1.40183e-05
-2.9041e-05
-9.57076e-06
-2.8174e-05
-5.26109e-06
-2.70637e-05
-1.11842e-06
-2.57603e-05
2.80582e-06
-2.43121e-05
6.47118e-06
-2.27601e-05
9.85454e-06
1.29916e-05
-2.11406e-05
-2.49975e-06
-5.55427e-05
-5.01995e-06
-5.60144e-05
-7.5069e-06
-5.51885e-05
-9.94074e-06
-5.39555e-05
-1.22963e-05
-5.23235e-05
-1.45464e-05
-5.02982e-05
-1.66618e-05
-4.78919e-05
-1.86112e-05
-4.51217e-05
-2.03628e-05
-4.20116e-05
-2.18856e-05
-3.85925e-05
-2.31516e-05
-3.49032e-05
-2.41383e-05
-3.09899e-05
-2.48306e-05
-2.69053e-05
-2.52227e-05
-2.27065e-05
-2.5319e-05
-1.8453e-05
-2.51332e-05
-1.4204e-05
-2.46875e-05
-1.00166e-05
-2.4009e-05
-5.93973e-06
-2.31231e-05
-2.00449e-06
-2.20781e-05
1.76062e-06
-2.09086e-05
5.3016e-06
-1.96472e-05
8.59306e-06
1.16638e-05
-1.83194e-05
-2.08943e-06
-5.34532e-05
-4.1948e-06
-5.39091e-05
-6.27026e-06
-5.31132e-05
-8.29707e-06
-5.19286e-05
-1.02539e-05
-5.03666e-05
-1.21179e-05