/*--------------------------------*- C++ -*----------------------------------*\
| =========                 |                                                 |
| \\      /  F ield         | OpenFOAM: The Open Source CFD Toolbox           |
|  \\    /   O peration     | Version:  5.x                                   |
|   \\  /    A nd           | Web:      www.OpenFOAM.org                      |
|    \\/     M anipulation  |                                                 |
\*---------------------------------------------------------------------------*/
FoamFile
{
    version     2.0;
    format      ascii;
    class       volVectorField;
    location    "0.15";
    object      U;
}
// * * * * * * * * * * * * * * * * * * * * * * * * * * * * * * * * * * * * * //

dimensions      [0 1 -1 0 0 0 0];

internalField   nonuniform List<vector> 
2268
(
(0.02133 -0.0115584 0)
(0.0850037 -0.0183818 0)
(0.164366 -0.0182327 0)
(0.240911 -0.017268 0)
(0.313525 -0.0170764 0)
(0.386123 -0.0174739 0)
(0.461326 -0.0181517 0)
(0.539781 -0.0189323 0)
(0.621617 -0.0197394 0)
(0.706859 -0.020532 0)
(0.795273 -0.0212483 0)
(0.886352 -0.021783 0)
(0.979064 -0.0219292 0)
(1.07122 -0.0213456 0)
(1.1589 -0.0196144 0)
(1.23609 -0.0162627 0)
(1.29377 -0.0101805 0)
(1.32043 0.00288991 0)
(1.28007 0.0289758 0)
(1.11435 0.0756052 0)
(0.762043 0.123968 0)
(0.239566 0.120017 0)
(-0.164964 -0.0748363 0)
(0.0214072 -0.0347926 0)
(0.0853464 -0.0550972 0)
(0.164785 -0.054734 0)
(0.241213 -0.0519187 0)
(0.313812 -0.051343 0)
(0.38651 -0.052534 0)
(0.461846 -0.0545704 0)
(0.540423 -0.0569187 0)
(0.622399 -0.0593603 0)
(0.707854 -0.0617551 0)
(0.796551 -0.0639023 0)
(0.887969 -0.065531 0)
(0.981218 -0.066096 0)
(1.07443 -0.0646097 0)
(1.16402 -0.0597758 0)
(1.24438 -0.0499637 0)
(1.30763 -0.0322359 0)
(1.34178 0.000715835 0)
(1.34689 0.0585947 0)
(1.32037 0.157769 0)
(1.19766 0.28314 0)
(0.797724 0.345347 0)
(0.301093 0.117674 0)
(0.0214771 -0.0582194 0)
(0.0854714 -0.0916626 0)
(0.164553 -0.0911183 0)
(0.240365 -0.0865234 0)
(0.312557 -0.0855629 0)
(0.385059 -0.0875524 0)
(0.460265 -0.0909567 0)
(0.538725 -0.0948821 0)
(0.620632 -0.0989801 0)
(0.706128 -0.103011 0)
(0.795021 -0.10664 0)
(0.886886 -0.109465 0)
(0.981039 -0.110652 0)
(1.07591 -0.108604 0)
(1.16837 -0.101167 0)
(1.25348 -0.0856041 0)
(1.32403 -0.0577025 0)
(1.36897 -0.0102089 0)
(1.37197 0.0685282 0)
(1.31383 0.197236 0)
(1.20676 0.384255 0)
(0.958499 0.550239 0)
(0.497298 0.392082 0)
(0.0216316 -0.0817864 0)
(0.0856692 -0.127978 0)
(0.16419 -0.127205 0)
(0.239169 -0.120914 0)
(0.310817 -0.119635 0)
(0.383057 -0.122469 0)
(0.458101 -0.127271 0)
(0.536436 -0.132799 0)
(0.618301 -0.138597 0)
(0.703915 -0.144338 0)
(0.793171 -0.149574 0)
(0.885823 -0.153807 0)
(0.981436 -0.155946 0)
(1.07876 -0.153869 0)
(1.1753 -0.144722 0)
(1.26719 -0.124835 0)
(1.34819 -0.0883996 0)
(1.40686 -0.0256785 0)
(1.42917 0.0794656 0)
(1.38089 0.244868 0)
(1.2396 0.477118 0)
(0.969653 0.743171 0)
(0.565372 0.70412 0)
(0.0218827 -0.105476 0)
(0.0859405 -0.163938 0)
(0.163675 -0.162815 0)
(0.237623 -0.15493 0)
(0.308616 -0.153456 0)
(0.38054 -0.157214 0)
(0.4554 -0.163458 0)
(0.533605 -0.170629 0)
(0.615455 -0.178197 0)
(0.701255 -0.185756 0)
(0.791013 -0.192785 0)
(0.884729 -0.198722 0)
(0.982234 -0.202238 0)
(1.08257 -0.200808 0)
(1.18414 -0.191154 0)
(1.28465 -0.168747 0)
(1.37884 -0.125873 0)
(1.45549 -0.049936 0)
(1.50175 0.0794151 0)
(1.4843 0.28812 0)
(1.36107 0.584365 0)
(1.01714 0.940175 0)
(0.622918 1.05343 0)
(0.022299 -0.12945 0)
(0.0863228 -0.199555 0)
(0.162988 -0.197909 0)
(0.235717 -0.188551 0)
(0.305964 -0.187035 0)
(0.377523 -0.191811 0)
(0.452154 -0.199539 0)
(0.530185 -0.208397 0)
(0.611985 -0.217808 0)
(0.697945 -0.227308 0)
(0.78822 -0.236356 0)
(0.883111 -0.244352 0)
(0.982692 -0.249703 0)
(1.08628 -0.249687 0)
(1.19343 -0.240965 0)
(1.30365 -0.218142 0)
(1.41284 -0.171276 0)
(1.51073 -0.0855722 0)
(1.58833 0.0626929 0)
(1.61791 0.30851 0)
(1.54939 0.690225 0)
(1.16054 1.14964 0)
(0.694697 1.43129 0)
(0.0229335 -0.153832 0)
(0.0867713 -0.234838 0)
(0.162029 -0.232523 0)
(0.233368 -0.221846 0)
(0.302772 -0.220453 0)
(0.373869 -0.226336 0)
(0.448162 -0.235588 0)
(0.525894 -0.246168 0)
(0.60752 -0.257492 0)
(0.693516 -0.269058 0)
(0.784215 -0.280362 0)
(0.880223 -0.290772 0)
(0.981838 -0.29842 0)
(1.08884 -0.300628 0)
(1.202 -0.294428 0)
(1.32248 -0.273498 0)
(1.44798 -0.225037 0)
(1.56994 -0.133261 0)
(1.68552 0.0223171 0)
(1.77929 0.289035 0)
(1.77779 0.759505 0)
(1.35972 1.36007 0)
(0.773567 1.85638 0)
(0.0237009 -0.178499 0)
(0.0871143 -0.269713 0)
(0.160665 -0.266545 0)
(0.230503 -0.254734 0)
(0.29895 -0.253655 0)
(0.369431 -0.260735 0)
(0.443221 -0.271549 0)
(0.520483 -0.283894 0)
(0.601767 -0.297208 0)
(0.687645 -0.310975 0)
(0.778644 -0.324774 0)
(0.875614 -0.337938 0)
(0.97907 -0.348385 0)
(1.08955 -0.353731 0)
(1.20904 -0.351617 0)
(1.33973 -0.334777 0)
(1.48194 -0.288457 0)
(1.63049 -0.200865 0)
(1.78105 -0.0613306 0)
(1.92759 0.192392 0)
(1.96388 0.740563 0)
(1.41959 1.57661 0)
(0.779749 2.3357 0)
(-0.0776525 0.0264903 0)
(-0.170022 0.0145388 0)
(-0.206995 0.00700696 0)
(-0.2217 0.000625867 0)
(-0.211919 -0.00314466 0)
(-0.190893 -0.00512796 0)
(-0.164082 -0.00580022 0)
(-0.136179 -0.00576296 0)
(-0.109854 -0.00531542 0)
(-0.0865353 -0.00466184 0)
(-0.0667253 -0.003935 0)
(-0.0505014 -0.00322547 0)
(-0.037429 -0.00257994 0)
(-0.0271944 -0.00211429 0)
(-0.0193062 -0.00163138 0)
(-0.0132379 -0.00134978 0)
(-0.00857382 -0.0010926 0)
(-0.00480273 -0.00090724 0)
(-0.00159145 -0.000812842 0)
(-0.0963417 0.0831183 0)
(-0.187871 0.0415642 0)
(-0.214543 0.0181428 0)
(-0.223516 -0.00018737 0)
(-0.210205 -0.010977 0)
(-0.186344 -0.0167362 0)
(-0.156799 -0.0185843 0)
(-0.126689 -0.0180382 0)
(-0.0990891 -0.0162516 0)
(-0.0753503 -0.0139247 0)
(-0.0557474 -0.0114662 0)
(-0.0401868 -0.00916566 0)
(-0.0281405 -0.00713861 0)
(-0.0191035 -0.00556873 0)
(-0.0125594 -0.00413342 0)
(-0.00794486 -0.00317326 0)
(-0.00473642 -0.00239681 0)
(-0.00250573 -0.00189099 0)
(-0.000877527 -0.0017648 0)
(-0.105246 0.146278 0)
(-0.20516 0.0681129 0)
(-0.226462 0.027628 0)
(-0.232047 -0.00250811 0)
(-0.214899 -0.019849 0)
(-0.188571 -0.0291245 0)
(-0.15764 -0.0319197 0)
(-0.126973 -0.0306687 0)
(-0.0991861 -0.0273659 0)
(-0.0753934 -0.0232004 0)
(-0.0558118 -0.0189288 0)
(-0.0403074 -0.0149835 0)
(-0.028324 -0.01156 0)
(-0.0192953 -0.00879715 0)
(-0.0127425 -0.00645033 0)
(-0.00811592 -0.00475213 0)
(-0.00486157 -0.0034581 0)
(-0.0025831 -0.00267363 0)
(-0.000902516 -0.0024255 0)
(-0.125521 0.219834 0)
(-0.240977 0.0949321 0)
(-0.24669 0.0347884 0)
(-0.244801 -0.0073198 0)
(-0.221697 -0.0304579 0)
(-0.191616 -0.0426199 0)
(-0.158086 -0.0457675 0)
(-0.125983 -0.0434917 0)
(-0.0975475 -0.0384836 0)
(-0.0735782 -0.0324369 0)
(-0.0540932 -0.0263856 0)
(-0.0388101 -0.0208415 0)
(-0.027106 -0.0159542 0)
(-0.0183181 -0.0119888 0)
(-0.0119889 -0.00880394 0)
(-0.00756961 -0.00636042 0)
(-0.00448968 -0.00455966 0)
(-0.00237418 -0.00347 0)
(-0.000828599 -0.00313116 0)
(-0.161229 0.304495 0)
(-0.294711 0.119488 0)
(-0.274485 0.035641 0)
(-0.262043 -0.0162295 0)
(-0.230284 -0.0435459 0)
(-0.195221 -0.0577138 0)
(-0.158258 -0.0606883 0)
(-0.124218 -0.0568445 0)
(-0.0949103 -0.0498833 0)
(-0.0707297 -0.0417277 0)
(-0.0513807 -0.033747 0)
(-0.0363612 -0.0265022 0)
(-0.0250127 -0.0202772 0)
(-0.0166552 -0.0150492 0)
(-0.010683 -0.0110417 0)
(-0.00657139 -0.00784354 0)
(-0.00381465 -0.00559479 0)
(-0.00198397 -0.00417231 0)
(-0.000694544 -0.00374538 0)
(-0.206247 0.427179 0)
(-0.357328 0.140511 0)
(-0.309632 0.0301542 0)
(-0.285113 -0.0301569 0)
(-0.240952 -0.0597418 0)
(-0.199152 -0.0747272 0)
(-0.157967 -0.0767836 0)
(-0.121673 -0.0708032 0)
(-0.0913891 -0.0615411 0)
(-0.0669668 -0.0510108 0)
(-0.0478413 -0.0409699 0)
(-0.0332753 -0.0319099 0)
(-0.0223963 -0.0243609 0)
(-0.0145213 -0.0180197 0)
(-0.00902529 -0.0130256 0)
(-0.00532427 -0.00921255 0)
(-0.00297179 -0.00648083 0)
(-0.00148396 -0.0047379 0)
(-0.000528473 -0.00423833 0)
(-0.28682 0.534667 0)
(-0.44621 0.141395 0)
(-0.353773 0.0212555 0)
(-0.316242 -0.0501183 0)
(-0.255149 -0.0808671 0)
(-0.203665 -0.0942918 0)
(-0.157001 -0.0942391 0)
(-0.11811 -0.0854663 0)
(-0.0868302 -0.0732295 0)
(-0.0622615 -0.0602295 0)
(-0.0434957 -0.0480382 0)
(-0.0295001 -0.0372141 0)
(-0.019271 -0.0281413 0)
(-0.0119651 -0.0207079 0)
(-0.00703569 -0.0148453 0)
(-0.00385592 -0.0103818 0)
(-0.001952 -0.00719531 0)
(-0.000896909 -0.0051698 0)
(-0.000335659 -0.00456904 0)
(-0.302662 0.787916 0)
(-0.602906 0.176588 0)
(-0.406878 -0.00493583 0)
(-0.352517 -0.0771269 0)
(-0.27194 -0.10902 0)
(-0.208555 -0.118333 0)
(-0.155439 -0.114041 0)
(-0.113479 -0.101314 0)
(-0.0811957 -0.0853714 0)
(-0.0566293 -0.0695057 0)
(-0.0383332 -0.0549471 0)
(-0.0250325 -0.0423194 0)
(-0.0155519 -0.0317083 0)
(-0.0090048 -0.0231098 0)
(-0.00473724 -0.0164357 0)
(-0.00214269 -0.0113295 0)
(-0.000798249 -0.00771073 0)
(-0.000207754 -0.00539777 0)
(-9.9846e-05 -0.00470344 0)
(0.0247313 -0.217615 0)
(0.0870922 -0.323015 0)
(0.157675 -0.317745 0)
(0.225001 -0.30466 0)
(0.291711 -0.304632 0)
(0.360884 -0.31379 0)
(0.433504 -0.327109 0)
(0.50964 -0.342308 0)
(0.589996 -0.358938 0)
(0.675302 -0.376511 0)
(0.766359 -0.394802 0)
(0.86421 -0.413058 0)
(0.96977 -0.429291 0)
(1.08505 -0.441983 0)
(1.21309 -0.448795 0)
(1.35516 -0.442157 0)
(1.51191 -0.413943 0)
(1.68502 -0.36464 0)
(1.85622 -0.276143 0)
(1.95867 0.072455 0)
(1.86814 1.09181 0)
(1.44063 2.03178 0)
(0.935774 2.94309 0)
(0.0257758 -0.271272 0)
(0.0864376 -0.393147 0)
(0.15271 -0.384303 0)
(0.216216 -0.370211 0)
(0.280266 -0.372249 0)
(0.347285 -0.38447 0)
(0.417854 -0.401261 0)
(0.491978 -0.420459 0)
(0.570584 -0.441861 0)
(0.654629 -0.46509 0)
(0.745195 -0.490211 0)
(0.843352 -0.516385 0)
(0.950785 -0.542378 0)
(1.07143 -0.567733 0)
(1.20752 -0.588693 0)
(1.35417 -0.601762 0)
(1.50407 -0.614338 0)
(1.66162 -0.593909 0)
(1.81812 -0.407279 0)
(1.87195 0.193061 0)
(1.62724 1.44193 0)
(1.48646 2.36742 0)
(1.08082 3.27916 0)
(0.0266238 -0.325373 0)
(0.0848935 -0.458689 0)
(0.146176 -0.445881 0)
(0.20545 -0.431998 0)
(0.266409 -0.436829 0)
(0.330615 -0.45229 0)
(0.398322 -0.472574 0)
(0.469511 -0.495883 0)
(0.545343 -0.522373 0)
(0.62702 -0.551778 0)
(0.715536 -0.584435 0)
(0.811735 -0.619729 0)
(0.919288 -0.657495 0)
(1.04241 -0.696299 0)
(1.17413 -0.733751 0)
(1.30063 -0.778738 0)
(1.4411 -0.811616 0)
(1.60302 -0.736353 0)
(1.69371 -0.397508 0)
(1.58284 0.648322 0)
(1.34603 1.95533 0)
(1.30322 2.57795 0)
(1.15355 3.2693 0)
(0.0270941 -0.379356 0)
(0.082248 -0.519511 0)
(0.138069 -0.502727 0)
(0.19287 -0.490201 0)
(0.250286 -0.498259 0)
(0.310949 -0.516915 0)
(0.374942 -0.540601 0)
(0.442218 -0.568033 0)
(0.514213 -0.599774 0)
(0.592352 -0.63554 0)
(0.676847 -0.675994 0)
(0.7691 -0.721311 0)
(0.876192 -0.770673 0)
(0.994526 -0.820468 0)
(1.10075 -0.880345 0)
(1.20881 -0.953624 0)
(1.35329 -0.955937 0)
(1.44216 -0.724675 0)
(1.30861 -0.114388 0)
(0.910312 0.852128 0)
(0.841777 2.05633 0)
(1.00696 2.75883 0)
(1.09061 3.03251 0)
(0.0271229 -0.432498 0)
(0.0784642 -0.574865 0)
(0.128454 -0.554474 0)
(0.178591 -0.544345 0)
(0.231961 -0.555787 0)
(0.288309 -0.577403 0)
(0.347721 -0.604276 0)
(0.410051 -0.635707 0)
(0.477156 -0.67267 0)
(0.55045 -0.714624 0)
(0.628621 -0.763128 0)
(0.716681 -0.818999 0)
(0.822073 -0.877179 0)
(0.920804 -0.937771 0)
(0.995639 -1.02509 0)
(1.11351 -1.0884 0)
(1.23177 -0.969883 0)
(1.07924 -0.482657 0)
(0.557357 0.263604 0)
(0.193803 0.840001 0)
(0.260303 1.65253 0)
(0.638309 2.60627 0)
(0.884446 2.86666 0)
(0.0266784 -0.484002 0)
(0.0735688 -0.624179 0)
(0.117461 -0.60095 0)
(0.162774 -0.594048 0)
(0.211555 -0.608737 0)
(0.262827 -0.63293 0)
(0.316822 -0.662675 0)
(0.37317 -0.697865 0)
(0.434459 -0.739816 0)
(0.501301 -0.787552 0)
(0.571153 -0.844754 0)
(0.656668 -0.910248 0)
(0.752405 -0.974181 0)
(0.817365 -1.05176 0)
(0.896619 -1.1555 0)
(1.03771 -1.16166 0)
(1.00959 -0.744802 0)
(0.436577 0.0677522 0)
(-0.0706187 0.63622 0)
(-0.250162 0.899059 0)
(-0.235336 1.37762 0)
(0.136609 2.19956 0)
(0.52319 2.53345 0)
(0.0257901 -0.532992 0)
(0.0676791 -0.667012 0)
(0.105284 -0.642029 0)
(0.145636 -0.638887 0)
(0.189284 -0.65644 0)
(0.234801 -0.682734 0)
(0.282628 -0.714957 0)
(0.332073 -0.753568 0)
(0.38681 -0.800033 0)
(0.445049 -0.853182 0)
(0.505849 -0.919465 0)
(0.588155 -0.990775 0)
(0.656748 -1.06204 0)
(0.698516 -1.16188 0)
(0.799881 -1.25429 0)
(0.884485 -1.05729 0)
(0.5933 -0.270624 0)
(-0.161414 0.554641 0)
(-0.331418 0.837437 0)
(-0.435737 0.949784 0)
(-0.473187 1.24299 0)
(-0.212388 1.75834 0)
(0.136099 2.0209 0)
(0.024484 -0.578877 0)
(0.0609817 -0.703344 0)
(0.0922379 -0.677885 0)
(0.12754 -0.678673 0)
(0.165596 -0.698483 0)
(0.204859 -0.7263 0)
(0.245925 -0.760465 0)
(0.287769 -0.801914 0)
(0.335062 -0.851969 0)
(0.381756 -0.910054 0)
(0.433557 -0.98301 0)
(0.50276 -1.05544 0)
(0.529954 -1.14531 0)
(0.591222 -1.26544 0)
(0.710529 -1.30214 0)
(0.64862 -0.773932 0)
(-0.0460452 0.31337 0)
(-0.351249 0.814607 0)
(-0.365849 0.910601 0)
(-0.419543 0.987654 0)
(-0.445375 1.17101 0)
(-0.290481 1.468 0)
(-0.0336075 1.62335 0)
(0.022821 -0.620917 0)
(0.0538125 -0.733007 0)
(0.0788412 -0.708422 0)
(0.109142 -0.712937 0)
(0.141337 -0.734261 0)
(0.174053 -0.762954 0)
(0.20783 -0.79839 0)
(0.241251 -0.841687 0)
(0.278975 -0.893701 0)
(0.310113 -0.95497 0)
(0.350495 -1.02775 0)
(0.388228 -1.1039 0)
(0.388592 -1.22821 0)
(0.476058 -1.34798 0)
(0.54412 -1.1801 0)
(0.291044 -0.263352 0)
(-0.331153 0.637636 0)
(-0.284175 0.870647 0)
(-0.291396 0.917011 0)
(-0.300775 1.00556 0)
(-0.297497 1.13216 0)
(-0.203448 1.30268 0)
(-0.0208955 1.41297 0)
(0.0210044 -0.658075 0)
(0.0466009 -0.755748 0)
(0.0655184 -0.733362 0)
(0.0909566 -0.741212 0)
(0.117026 -0.763354 0)
(0.142612 -0.792298 0)
(0.167993 -0.828118 0)
(0.19094 -0.871588 0)
(0.215105 -0.922621 0)
(0.227395 -0.982603 0)
(0.252439 -1.049 0)
(0.258298 -1.14499 0)
(0.291653 -1.3081 0)
(0.381232 -1.39002 0)
(0.347221 -0.965992 0)
(-0.051973 0.120691 0)
(-0.265427 0.762344 0)
(-0.154431 0.832192 0)
(-0.180302 0.912742 0)
(-0.172321 1.00091 0)
(-0.157062 1.09692 0)
(-0.0924996 1.19698 0)
(0.0313266 1.26999 0)
(0.0191654 -0.691267 0)
(0.0391916 -0.772663 0)
(0.0516202 -0.753786 0)
(0.0719569 -0.764325 0)
(0.0910187 -0.786107 0)
(0.108006 -0.813864 0)
(0.123118 -0.847817 0)
(0.133241 -0.888063 0)
(0.142797 -0.933836 0)
(0.143974 -0.988928 0)
(0.167182 -1.05551 0)
(0.198377 -1.19254 0)
(0.310282 -1.36383 0)
(0.361393 -1.33556 0)
(0.273016 -0.646084 0)
(-0.0405483 0.341002 0)
(-0.00146553 0.771569 0)
(-0.0322211 0.812788 0)
(-0.0654612 0.923335 0)
(-0.0756248 0.992907 0)
(-0.0631838 1.06175 0)
(-0.0130915 1.12027 0)
(0.0755568 1.15791 0)
(0.0170474 -0.721416 0)
(0.0303653 -0.783947 0)
(0.0354465 -0.769804 0)
(0.0500568 -0.781619 0)
(0.0612376 -0.800766 0)
(0.0695703 -0.824784 0)
(0.076393 -0.853834 0)
(0.0806914 -0.889209 0)
(0.0934044 -0.934673 0)
(0.126148 -0.999755 0)
(0.215597 -1.10568 0)
(0.369165 -1.29202 0)
(0.497008 -1.40986 0)
(0.412522 -1.25887 0)
(0.426688 -0.670748 0)
(0.328146 0.409032 0)
(0.277572 0.822598 0)
(0.0963125 0.880195 0)
(0.0247141 0.95627 0)
(-0.014764 0.999262 0)
(-0.0118874 1.0359 0)
(0.0265777 1.06074 0)
(0.0953129 1.06904 0)
(0.0146441 -0.744673 0)
(0.0197965 -0.787168 0)
(0.0187497 -0.779144 0)
(0.0290028 -0.791119 0)
(0.0363596 -0.80761 0)
(0.0464824 -0.829771 0)
(0.0647197 -0.860816 0)
(0.0998082 -0.906561 0)
(0.169145 -0.982367 0)
(0.321352 -1.11286 0)
(0.644435 -1.34203 0)
(0.834321 -1.47889 0)
(0.729128 -1.35602 0)
(0.408241 -1.17953 0)
(0.354741 -0.874956 0)
(0.547474 0.480154 0)
(0.497252 1.05633 0)
(0.186124 1.0382 0)
(0.0632675 1.02272 0)
(0.00882643 1.0237 0)
(0.0017601 1.02173 0)
(0.0298886 1.01419 0)
(0.0849899 0.997561 0)
(0.0141965 -0.759776 0)
(0.0122328 -0.78093 0)
(0.0147027 -0.783635 0)
(0.0292322 -0.798663 0)
(0.0509027 -0.820936 0)
(0.0981824 -0.858717 0)
(0.195195 -0.933829 0)
(0.33339 -1.01681 0)
(0.496731 -1.17018 0)
(0.654596 -1.42034 0)
(0.811706 -1.53717 0)
(0.847181 -1.47065 0)
(0.826726 -1.02793 0)
(0.471582 -0.934456 0)
(0.294848 -0.842087 0)
(0.354786 0.0445756 0)
(0.472132 1.2475 0)
(0.146435 1.23944 0)
(0.0261291 1.11479 0)
(-0.0156504 1.05609 0)
(-0.0216649 1.01327 0)
(0.0043431 0.977001 0)
(0.0518589 0.939821 0)
(0.0180763 -0.773627 0)
(0.0205861 -0.78064 0)
(0.0500615 -0.799654 0)
(0.0818461 -0.827278 0)
(0.12778 -0.87468 0)
(0.18967 -0.954301 0)
(0.257953 -1.04798 0)
(0.350372 -1.16086 0)
(0.456831 -1.32457 0)
(0.577601 -1.51835 0)
(0.727301 -1.61822 0)
(0.762064 -1.46905 0)
(0.819362 -0.940575 0)
(0.657766 -0.588699 0)
(0.252347 -0.680399 0)
(0.213582 0.128136 0)
(0.176836 1.43346 0)
(-0.0506579 1.38839 0)
(-0.0776377 1.18528 0)
(-0.09159 1.07502 0)
(-0.0780661 0.999673 0)
(-0.0437102 0.941209 0)
(0.00358621 0.889178 0)
(0.0107554 -0.792054 0)
(0.0229929 -0.810589 0)
(0.0486308 -0.833874 0)
(0.0727388 -0.867957 0)
(0.102522 -0.924926 0)
(0.13718 -1.00285 0)
(0.172279 -1.1067 0)
(0.216267 -1.23574 0)
(0.275865 -1.42426 0)
(0.367406 -1.64997 0)
(0.474795 -1.74372 0)
(0.483157 -1.52037 0)
(0.478321 -0.94132 0)
(0.582703 -0.442566 0)
(0.0801155 -0.437412 0)
(-0.00350866 0.291634 0)
(-0.271545 1.56999 0)
(-0.307104 1.43465 0)
(-0.229279 1.19617 0)
(-0.200969 1.06053 0)
(-0.156021 0.968898 0)
(-0.106406 0.898139 0)
(-0.0534534 0.838521 0)
(0.00324483 -0.80677 0)
(0.011265 -0.826891 0)
(0.020769 -0.851637 0)
(0.0291573 -0.887209 0)
(0.0379974 -0.943959 0)
(0.0431791 -1.02083 0)
(0.0448225 -1.12351 0)
(0.0449787 -1.26516 0)
(0.0559756 -1.48051 0)
(0.0733872 -1.72447 0)
(0.0643199 -1.78625 0)
(-0.010295 -1.47944 0)
(-0.089568 -0.918534 0)
(0.0414403 -0.402342 0)
(-0.335438 -0.130015 0)
(-0.498701 0.697453 0)
(-0.736334 1.58743 0)
(-0.554725 1.35064 0)
(-0.395798 1.13188 0)
(-0.320306 1.0037 0)
(-0.24053 0.913828 0)
(-0.174235 0.842546 0)
(-0.112684 0.783181 0)
(-0.00238187 -0.807811 0)
(-0.00590307 -0.828132 0)
(-0.011308 -0.85088 0)
(-0.0188971 -0.885927 0)
(-0.0308069 -0.937474 0)
(-0.0501204 -1.00761 0)
(-0.080309 -1.10116 0)
(-0.123721 -1.23745 0)
(-0.178893 -1.44583 0)
(-0.282235 -1.66283 0)
(-0.44342 -1.68172 0)
(-0.603799 -1.33332 0)
(-0.636949 -0.813336 0)
(-0.700598 -0.321737 0)
(-0.94744 0.188005 0)
(-1.11459 0.961023 0)
(-1.03218 1.40046 0)
(-0.733553 1.14382 0)
(-0.535844 1.00061 0)
(-0.422141 0.907751 0)
(-0.316795 0.834571 0)
(-0.237284 0.773629 0)
(-0.167741 0.72141 0)
(-0.00699993 -0.796803 0)
(-0.0219507 -0.817139 0)
(-0.0390197 -0.836439 0)
(-0.0602486 -0.867098 0)
(-0.088572 -0.910536 0)
(-0.12752 -0.968279 0)
(-0.183428 -1.04308 0)
(-0.261923 -1.15027 0)
(-0.381603 -1.30858 0)
(-0.593027 -1.46782 0)
(-0.875793 -1.46986 0)
(-1.10689 -1.17299 0)
(-1.20343 -0.637683 0)
(-1.325 -0.0737863 0)
(-1.49497 0.41154 0)
(-1.40781 0.891844 0)
(-1.11523 1.04538 0)
(-0.813852 0.88543 0)
(-0.619212 0.835988 0)
(-0.488556 0.786969 0)
(-0.373963 0.738752 0)
(-0.287696 0.694983 0)
(-0.213668 0.654344 0)
(-0.0109617 -0.777547 0)
(-0.0349987 -0.795769 0)
(-0.0616158 -0.811287 0)
(-0.0933919 -0.835659 0)
(-0.133315 -0.869001 0)
(-0.185495 -0.911491 0)
(-0.256095 -0.962915 0)
(-0.352242 -1.02724 0)
(-0.497316 -1.11405 0)
(-0.736144 -1.20057 0)
(-1.05494 -1.19028 0)
(-1.36062 -0.986473 0)
(-1.55962 -0.581818 0)
(-1.61374 -0.0807204 0)
(-1.54822 0.345522 0)
(-1.34635 0.606615 0)
(-1.04365 0.680615 0)
(-0.811837 0.65944 0)
(-0.645193 0.673294 0)
(-0.518237 0.660716 0)
(-0.408056 0.637963 0)
(-0.321923 0.612682 0)
(-0.247896 0.585026 0)
(-0.0144085 -0.750875 0)
(-0.0452793 -0.766478 0)
(-0.0789245 -0.777966 0)
(-0.117863 -0.795377 0)
(-0.16477 -0.818246 0)
(-0.223351 -0.845737 0)
(-0.298652 -0.875467 0)
(-0.39485 -0.903764 0)
(-0.524538 -0.930768 0)
(-0.717381 -0.947647 0)
(-0.974095 -0.903071 0)
(-1.22786 -0.735231 0)
(-1.3922 -0.450626 0)
(-1.42012 -0.125846 0)
(-1.31843 0.150506 0)
(-1.12753 0.333275 0)
(-0.922767 0.430685 0)
(-0.766341 0.49301 0)
(-0.631943 0.532201 0)
(-0.520142 0.544482 0)
(-0.421539 0.542111 0)
(-0.340607 0.532584 0)
(-0.27023 0.51694 0)
(-0.0168148 -0.718022 0)
(-0.052364 -0.731138 0)
(-0.0905366 -0.738721 0)
(-0.133541 -0.749706 0)
(-0.183577 -0.763145 0)
(-0.243513 -0.777641 0)
(-0.316966 -0.790497 0)
(-0.405707 -0.796526 0)
(-0.512546 -0.790285 0)
(-0.648963 -0.765043 0)
(-0.818528 -0.702505 0)
(-0.986965 -0.577058 0)
(-1.09604 -0.386641 0)
(-1.11121 -0.170323 0)
(-1.04186 0.023304 0)
(-0.927646 0.175616 0)
(-0.811791 0.290307 0)
(-0.704169 0.371141 0)
(-0.598251 0.417715 0)
(-0.504646 0.444931 0)
(-0.419694 0.456417 0)
(-0.346625 0.458556 0)
(-0.282051 0.452835 0)
(-0.0182229 -0.681523 0)
(-0.0565536 -0.692524 0)
(-0.0971437 -0.696569 0)
(-0.141772 -0.702075 0)
(-0.192189 -0.707769 0)
(-0.250339 -0.712071 0)
(-0.318393 -0.712441 0)
(-0.397189 -0.704886 0)
(-0.486374 -0.684278 0)
(-0.586599 -0.643525 0)
(-0.695541 -0.572571 0)
(-0.797731 -0.463329 0)
(-0.86568 -0.320133 0)
(-0.881608 -0.164479 0)
(-0.852518 -0.0207654 0)
(-0.794175 0.100937 0)
(-0.719901 0.203335 0)
(-0.638696 0.278197 0)
(-0.556036 0.327467 0)
(-0.4793 0.362185 0)
(-0.40748 0.3822 0)
(-0.343212 0.392353 0)
(-0.285366 0.394319 0)
(-0.0189188 -0.643119 0)
(-0.0583682 -0.652316 0)
(-0.0996871 -0.653414 0)
(-0.144185 -0.654498 0)
(-0.193146 -0.654235 0)
(-0.247821 -0.651139 0)
(-0.309231 -0.642947 0)
(-0.377526 -0.626611 0)
(-0.452237 -0.598587 0)
(-0.532014 -0.553812 0)
(-0.611418 -0.486028 0)
(-0.679341 -0.393119 0)
(-0.72352 -0.281591 0)
(-0.737622 -0.164124 0)
(-0.724129 -0.0514511 0)
(-0.689015 0.0520365 0)
(-0.637374 0.139461 0)
(-0.575529 0.20681 0)
(-0.511378 0.256744 0)
(-0.448866 0.294129 0)
(-0.388723 0.318948 0)
(-0.333151 0.334375 0)
(-0.282188 0.342045 0)
(-0.0190164 -0.604032 0)
(-0.058239 -0.611709 0)
(-0.0989511 -0.610553 0)
(-0.142067 -0.608278 0)
(-0.188416 -0.603694 0)
(-0.238786 -0.595505 0)
(-0.293545 -0.581874 0)
(-0.352338 -0.560436 0)
(-0.414298 -0.5288 0)
(-0.477868 -0.484422 0)
(-0.538652 -0.424223 0)
(-0.588668 -0.346933 0)
(-0.620546 -0.256715 0)
(-0.632002 -0.161797 0)
(-0.624633 -0.0691731 0)
(-0.60053 0.0166539 0)
(-0.563046 0.0912919 0)
(-0.516891 0.152361 0)
(-0.467025 0.200777 0)
(-0.416221 0.23834 0)
(-0.366158 0.265542 0)
(-0.318625 0.284283 0)
(-0.274253 0.296028 0)
(-0.0185729 -0.565792 0)
(-0.0566522 -0.572167 0)
(-0.0958198 -0.569383 0)
(-0.136732 -0.564678 0)
(-0.17984 -0.557107 0)
(-0.225578 -0.545577 0)
(-0.273943 -0.528704 0)
(-0.324364 -0.504883 0)
(-0.37574 -0.472489 0)
(-0.426429 -0.429741 0)
(-0.473453 -0.375055 0)
(-0.512043 -0.308771 0)
(-0.537424 -0.234408 0)
(-0.547483 -0.157085 0)
(-0.543029 -0.0808452 0)
(-0.526017 -0.00885775 0)
(-0.498509 0.0554548 0)
(-0.463495 0.110476 0)
(-0.424358 0.156003 0)
(-0.383132 0.192582 0)
(-0.341606 0.220669 0)
(-0.301252 0.241356 0)
(-0.262934 0.255908 0)
(-0.0177101 -0.528867 0)
(-0.0540069 -0.534196 0)
(-0.0910187 -0.530296 0)
(-0.129218 -0.523958 0)
(-0.168817 -0.514465 0)
(-0.209977 -0.500967 0)
(-0.252504 -0.482449 0)
(-0.295791 -0.457799 0)
(-0.338874 -0.426008 0)
(-0.380256 -0.386213 0)
(-0.417515 -0.337798 0)
(-0.447531 -0.281145 0)
(-0.467638 -0.218455 0)
(-0.476602 -0.153221 0)
(-0.474585 -0.0887547 0)
(-0.462555 -0.0275419 0)
(-0.441982 0.0285109 0)
(-0.415078 0.0778923 0)
(-0.384091 0.120055 0)
(-0.35064 0.15504 0)
(-0.316245 0.183066 0)
(-0.282168 0.204757 0)
(-0.249268 0.22115 0)
(-0.0165954 -0.493915 0)
(-0.050679 -0.498477 0)
(-0.0851683 -0.493849 0)
(-0.12038 -0.486512 0)
(-0.156403 -0.475903 0)
(-0.193207 -0.461403 0)
(-0.230522 -0.442301 0)
(-0.267749 -0.417884 0)
(-0.304003 -0.387526 0)
(-0.338069 -0.350739 0)
(-0.368249 -0.307384 0)
(-0.392474 -0.258134 0)
(-0.408941 -0.204662 0)
(-0.416776 -0.149218 0)
(-0.416088 -0.0940123 0)
(-0.407551 -0.0409459 0)
(-0.392064 0.00834448 0)
(-0.371195 0.0524988 0)
(-0.346553 0.0912364 0)
(-0.319352 0.12428 0)
(-0.290865 0.151648 0)
(-0.262175 0.173682 0)
(-0.234041 0.191187 0)
(-0.0153674 -0.461261 0)
(-0.0469497 -0.465299 0)
(-0.0787165 -0.460232 0)
(-0.110843 -0.452362 0)
(-0.143355 -0.441222 0)
(-0.176104 -0.426394 0)
(-0.208792 -0.4074 0)
(-0.240879 -0.383793 0)
(-0.271618 -0.35523 0)
(-0.300021 -0.321531 0)
(-0.324833 -0.28279 0)
(-0.344678 -0.239605 0)
(-0.3584 -0.193201 0)
(-0.365361 -0.145223 0)
(-0.365525 -0.0973373 0)
(-0.359366 -0.0509722 0)
(-0.347776 -0.00734335 0)
(-0.33157 0.0324353 0)
(-0.311764 0.0680173 0)
(-0.28957 0.0990515 0)
(-0.265961 0.125443 0)
(-0.241845 0.147375 0)
(-0.217856 0.165463 0)
(-0.0141063 -0.431184 0)
(-0.0430146 -0.434874 0)
(-0.0719723 -0.429588 0)
(-0.10104 -0.42151 0)
(-0.130181 -0.410247 0)
(-0.159205 -0.395538 0)
(-0.187806 -0.377078 0)
(-0.215512 -0.354612 0)
(-0.241698 -0.327974 0)
(-0.265592 -0.297148 0)
(-0.28628 -0.262349 0)
(-0.302811 -0.224138 0)
(-0.314403 -0.183445 0)
(-0.320612 -0.141457 0)
(-0.32138 -0.0994313 0)
(-0.317012 -0.0585323 0)
(-0.308114 -0.0196995 0)
(-0.295347 0.0164352 0)
(-0.279482 0.0491965 0)
(-0.261365 0.0782978 0)
(-0.241801 0.103581 0)
(-0.221559 0.125141 0)
(-0.201155 0.143448 0)
(-0.0128393 -0.403804 0)
(-0.039001 -0.407243 0)
(-0.0651428 -0.401907 0)
(-0.09125 -0.393837 0)
(-0.117204 -0.382723 0)
(-0.142825 -0.368412 0)
(-0.167809 -0.350727 0)
(-0.191754 -0.329541 0)
(-0.21415 -0.304811 0)
(-0.234391 -0.276618 0)
(-0.251806 -0.245221 0)
(-0.265729 -0.211114 0)
(-0.275619 -0.175029 0)
(-0.281162 -0.137866 0)
(-0.282299 -0.100578 0)
(-0.279235 -0.0640767 0)
(-0.272402 -0.029121 0)
(-0.262315 0.00372378 0)
(-0.249544 0.0339313 0)
(-0.234732 0.061209 0)
(-0.218523 0.085346 0)
(-0.20156 0.106373 0)
(-0.184252 0.124659 0)
(-0.011573 -0.37914 0)
(-0.0349999 -0.38237 0)
(-0.0583777 -0.377104 0)
(-0.0816532 -0.369182 0)
(-0.104624 -0.358388 0)
(-0.127138 -0.344638 0)
(-0.148908 -0.327846 0)
(-0.169595 -0.307972 0)
(-0.188783 -0.28505 0)
(-0.206005 -0.259214 0)
(-0.220759 -0.230735 0)
(-0.232572 -0.200044 0)
(-0.241062 -0.167732 0)
(-0.246005 -0.134499 0)
(-0.24736 -0.101087 0)
(-0.245262 -0.0682225 0)
(-0.240008 -0.0365296 0)
(-0.232018 -0.00647498 0)
(-0.221719 0.0215215 0)
(-0.209597 0.0471379 0)
(-0.196181 0.070155 0)
(-0.181998 0.0905662 0)
(-0.167364 0.108672 0)
(-0.0103145 -0.357125 0)
(-0.0310817 -0.360161 0)
(-0.0517874 -0.355042 0)
(-0.0723675 -0.347359 0)
(-0.092555 -0.336982 0)
(-0.112226 -0.323873 0)
(-0.131119 -0.30801 0)
(-0.148949 -0.28941 0)
(-0.165383 -0.268154 0)
(-0.180056 -0.244403 0)
(-0.192593 -0.218421 0)
(-0.202651 -0.190585 0)
(-0.209957 -0.161381 0)
(-0.214351 -0.131369 0)
(-0.215804 -0.101144 0)
(-0.214414 -0.0712913 0)
(-0.21039 -0.0423259 0)
(-0.204047 -0.0146489 0)
(-0.19574 0.0114244 0)
(-0.185839 0.0355621 0)
(-0.174765 0.0575279 0)
(-0.162951 0.0772946 0)
(-0.150634 0.0951205 0)
(-0.00907874 -0.33766 0)
(-0.0272977 -0.340519 0)
(-0.045446 -0.335584 0)
(-0.0634636 -0.328187 0)
(-0.0810523 -0.318272 0)
(-0.0981089 -0.305828 0)
(-0.114404 -0.290876 0)
(-0.129699 -0.27347 0)
(-0.143727 -0.253717 0)
(-0.156203 -0.231789 0)
(-0.166847 -0.207937 0)
(-0.175405 -0.18249 0)
(-0.18168 -0.155857 0)
(-0.185559 -0.128497 0)
(-0.187022 -0.100895 0)
(-0.186145 -0.0735299 0)
(-0.183087 -0.046837 0)
(-0.178084 -0.0211669 0)
(-0.171404 0.00322495 0)
(-0.163328 0.0260628 0)
(-0.154229 0.0470726 0)
(-0.144442 0.0662059 0)
(-0.134144 0.0836934 0)
(-0.00787993 -0.320672 0)
(-0.0236745 -0.323374 0)
(-0.0393872 -0.318633 0)
(-0.0549682 -0.311538 0)
(-0.0701236 -0.302086 0)
(-0.0847619 -0.290287 0)
(-0.0986876 -0.276187 0)
(-0.111704 -0.259864 0)
(-0.123595 -0.241438 0)
(-0.134141 -0.221085 0)
(-0.14313 -0.199036 0)
(-0.150374 -0.175585 0)
(-0.15573 -0.151078 0)
(-0.159117 -0.125901 0)
(-0.160526 -0.100458 0)
(-0.160015 -0.0751488 0)
(-0.157709 -0.0503503 0)
(-0.153788 -0.0263711 0)
(-0.148453 -0.00341477 0)
(-0.141916 0.0183016 0)
(-0.134493 0.0384715 0)
(-0.126458 0.0570115 0)
(-0.117934 0.0741333 0)
(-0.00672491 -0.306071 0)
(-0.0202112 -0.308649 0)
(-0.0336053 -0.304097 0)
(-0.0468662 -0.297299 0)
(-0.0597328 -0.288287 0)
(-0.0721189 -0.277085 0)
(-0.083863 -0.263755 0)
(-0.094803 -0.248388 0)
(-0.104768 -0.231111 0)
(-0.113587 -0.212095 0)
(-0.1211 -0.191555 0)
(-0.127167 -0.169755 0)
(-0.131686 -0.146995 0)
(-0.134598 -0.123603 0)
(-0.1359 -0.0999231 0)
(-0.135641 -0.0762957 0)
(-0.133921 -0.0530481 0)
(-0.130877 -0.0304604 0)
(-0.126661 -0.00871643 0)
(-0.121444 0.0120245 0)
(-0.115464 0.0314711 0)
(-0.10896 0.0494779 0)
(-0.102009 0.0662311 0)
(-0.00561001 -0.293629 0)
(-0.0168888 -0.296117 0)
(-0.0280766 -0.291746 0)
(-0.0391248 -0.285234 0)
(-0.0498283 -0.276632 0)
(-0.0601012 -0.265976 0)
(-0.0698144 -0.253335 0)
(-0.0788371 -0.238805 0)
(-0.087036 -0.222513 0)
(-0.0942806 -0.204626 0)
(-0.10045 -0.185342 0)
(-0.105443 -0.164899 0)
(-0.109184 -0.143563 0)
(-0.111633 -0.121619 0)
(-0.112789 -0.099366 0)
(-0.112694 -0.0770998 0)
(-0.111428 -0.0551067 0)
(-0.109099 -0.0336425 0)
(-0.105836 -0.0128962 0)
(-0.101772 0.00700869 0)
(-0.0970486 0.0258665 0)
(-0.0918941 0.0434176 0)
(-0.0863567 0.0598206 0)
(-0.00451341 -0.283222 0)
(-0.0136671 -0.285637 0)
(-0.0227702 -0.281423 0)
(-0.0317106 -0.275165 0)
(-0.0403655 -0.266927 0)
(-0.0486467 -0.256747 0)
(-0.0564553 -0.244699 0)
(-0.0636885 -0.23088 0)
(-0.0702446 -0.215418 0)
(-0.0760262 -0.198469 0)
(-0.0809456 -0.180219 0)
(-0.0849298 -0.160885 0)
(-0.087927 -0.140702 0)
(-0.0899116 -0.119926 0)
(-0.0908869 -0.0988176 0)
(-0.0908873 -0.077639 0)
(-0.0899766 -0.0566442 0)
(-0.0882447 -0.0360706 0)
(-0.0857963 -0.0161115 0)
(-0.08272 0.00312403 0)
(-0.0791136 0.0215055 0)
(-0.0751899 0.0386877 0)
(-0.070948 0.0547749 0)
(-0.00339304 -0.275289 0)
(-0.0104608 -0.277565 0)
(-0.0175914 -0.273468 0)
(-0.024513 -0.267412 0)
(-0.0312139 -0.259455 0)
(-0.0376081 -0.249644 0)
(-0.0436243 -0.238052 0)
(-0.0491842 -0.224779 0)
(-0.0542114 -0.20995 0)
(-0.0586334 -0.193715 0)
(-0.0623861 -0.176252 0)
(-0.0654184 -0.157759 0)
(-0.0676966 -0.138453 0)
(-0.0692071 -0.118566 0)
(-0.0699591 -0.0983312 0)
(-0.0699843 -0.0779847 0)
(-0.0693361 -0.0577529 0)
(-0.0680873 -0.0378518 0)
(-0.066329 -0.0184714 0)
(-0.0641426 0.000274684 0)
(-0.0615738 0.0182845 0)
(-0.0587816 0.0351873 0)
(-0.0557511 0.0510047 0)
(-0.00223267 -0.269986 0)
(-0.00719357 -0.271884 0)
(-0.0123868 -0.267902 0)
(-0.0173231 -0.262022 0)