# vtk DataFile Version 4.0
Generated by LIGGGHTS
ASCII
DATASET POLYDATA
POINTS 738 float
-0.233397 0.0296823 -0.185534 -0.47946 -0.0348578 -0.396729 -0.201677 0.026402 -0.188394 
-0.477478 -0.00463079 -0.386457 -0.483235 -0.011517 -0.383807 -0.48045 0.023934 -0.383909 
-0.465501 -0.0278631 -0.375319 -0.460303 0.0159504 -0.378073 -0.47203 0.0132959 -0.371884 
-0.476733 0.0237716 -0.372581 -0.457394 -0.00484035 -0.363913 -0.442663 -0.0068169 -0.365489 
-0.46331 0.00857741 -0.36536 -0.457831 -0.00645308 -0.356796 -0.468959 -0.0378462 -0.353081 
-0.457415 0.0339097 -0.349458 -0.447808 0.00464799 -0.347732 -0.439311 0.0145966 -0.347884 
-0.455857 0.0268573 -0.348259 -0.449795 0.0100485 -0.344663 -0.450502 0.0593536 -0.342697 
-0.438409 -0.0127192 -0.339531 -0.441087 -0.00448036 -0.338706 -0.450385 0.00787103 -0.339114 
-0.436302 -2.1652e-05 -0.335838 -0.440897 -0.000696123 -0.328698 -0.431631 0.000678602 -0.327851 
-0.430396 -0.03059 -0.326109 -0.427314 -0.00146453 -0.32281 -0.428068 0.0184751 -0.322059 
-0.446841 -0.0435504 -0.314287 -0.412746 -0.00464497 -0.313981 -0.418082 -0.0136545 -0.309543 
-0.424003 -0.00770096 -0.309404 -0.408975 0.00341252 -0.310325 -0.399946 -0.0120647 -0.305026 
-0.411462 -0.00145748 -0.30577 -0.406813 -0.00209858 -0.303526 -0.405999 0.00517653 -0.302408 
-0.414093 0.0122171 -0.303089 -0.392158 -0.0111151 -0.300734 -0.402861 -0.00325909 -0.295831 
-0.399121 0.00460448 -0.29453 -0.414676 0.0335071 -0.295873 -0.40106 0.0155739 -0.290469 
-0.399713 -0.0168038 -0.288917 -0.39207 -0.0151081 -0.28752 -0.394561 -0.00559043 -0.289889 
-0.393017 0.0174517 -0.28828 -0.396751 -0.00972338 -0.28387 -0.388555 -0.00542553 -0.285006 
-0.387068 0.000387018 -0.284692 -0.378357 -0.00178247 -0.285326 -0.392764 -0.0165412 -0.282969 
-0.38201 -0.00685903 -0.279109 -0.372451 -0.000580055 -0.280592 -0.383339 0.00794167 -0.282121 
-0.383076 -0.0109085 -0.277746 -0.374762 0.00363013 -0.275698 -0.376145 0.0067682 -0.275659 
-0.379408 0.017049 -0.277496 -0.389627 0.0332662 -0.276482 -0.372947 -0.0127646 -0.271292 
-0.375075 -0.00200365 -0.271983 -0.37061 0.00104849 -0.272847 -0.36295 0.00597036 -0.264976 
-0.365909 0.0109563 -0.265904 -0.364766 0.0160499 -0.265071 -0.371109 -0.0304828 -0.263502 
-0.360415 -0.0184928 -0.260894 -0.355896 -0.00971638 -0.261906 -0.353504 -0.0147882 -0.256601 
-0.355171 -0.00591251 -0.259922 -0.353032 -0.00426631 -0.25659 -0.360428 0.0231642 -0.258638 
-0.348091 0.00803241 -0.253398 -0.348593 -0.0230087 -0.251701 -0.346312 -0.0110502 -0.251691 
-0.339964 -0.00965099 -0.248949 -0.339503 -0.000322078 -0.249062 -0.341138 0.0055273 -0.252147 
-0.339972 0.0120552 -0.249907 -0.3423 0.018195 -0.249946 -0.354104 -0.0378497 -0.246892 
-0.347367 -0.0354136 -0.246267 -0.344228 -0.0326739 -0.245285 -0.343258 -0.0227693 -0.248152 
-0.338159 -0.0179418 -0.247302 -0.33583 -0.00870163 -0.247795 -0.335162 -0.00499522 -0.247842 
-0.328711 -0.00374783 -0.244669 -0.335029 0.00360909 -0.246814 -0.327247 -0.0216318 -0.241619 
-0.327302 -0.0159548 -0.242968 -0.324068 -0.011689 -0.242027 -0.327565 -0.00738636 -0.243832 
-0.322282 -0.00655571 -0.241622 -0.325064 -0.00542918 -0.242861 -0.32284 2.01943e-05 -0.242278 
-0.320074 0.00178032 -0.240996 -0.327346 0.0045576 -0.242914 -0.320143 0.00888207 -0.240574 
-0.322947 0.0125679 -0.241525 -0.321903 0.0152387 -0.240617 -0.324476 0.0191032 -0.240952 
-0.33391 0.0301655 -0.241377 -0.327481 -0.0200686 -0.238224 -0.319215 -0.0188368 -0.238858 
-0.312423 -0.00553103 -0.237683 -0.312894 0.00197703 -0.237957 -0.317508 0.00765892 -0.239541 
-0.311758 0.0074389 -0.237135 -0.320254 0.0118628 -0.240233 -0.317136 0.0108645 -0.239186 
-0.324062 0.0229977 -0.24001 -0.334229 0.0410817 -0.237966 -0.315232 -0.0269509 -0.235128 
-0.316983 -0.024546 -0.23587 -0.309231 -0.0124902 -0.235632 -0.316491 -0.0046802 -0.236607 
-0.306613 -0.00430057 -0.235276 -0.309667 -0.00127716 -0.23667 -0.307311 0.000372435 -0.234142 
-0.315782 0.0261315 -0.235935 -0.309648 -0.0248909 -0.232498 -0.31628 -0.0199906 -0.231602 
-0.304364 -0.0215592 -0.232039 -0.303798 -0.0178556 -0.232668 -0.298407 -0.0195794 -0.230051 
-0.306006 -0.015485 -0.231793 -0.300665 -0.0137852 -0.231985 -0.300617 -0.0027938 -0.232799 
-0.301613 0.00309855 -0.231112 -0.303946 0.0102102 -0.232582 -0.29782 0.00877799 -0.231173 
-0.321637 0.0416648 -0.232448 -0.311472 -0.038222 -0.22999 -0.299236 -0.0150893 -0.228456 
-0.293218 0.00207835 -0.229658 -0.290969 0.0114223 -0.227031 -0.314983 0.0436338 -0.227709 
-0.296331 -0.0347884 -0.22509 -0.278121 -0.0115618 -0.22275 -0.281855 -0.00137677 -0.223846 
-0.280177 0.012026 -0.223569 -0.290459 0.0151631 -0.225519 -0.289683 0.0191773 -0.225318 
-0.284479 0.0175043 -0.223476 -0.28125 -0.0230838 -0.221201 -0.277311 -0.00592332 -0.221775 
-0.271862 -0.00640268 -0.21946 -0.277385 0.00469667 -0.221307 -0.275506 0.00748135 -0.21897 
-0.277068 0.0127483 -0.22116 -0.292627 0.0378192 -0.221558 -0.287617 -0.0433432 -0.217163 
-0.270551 -0.0300197 -0.216071 -0.266172 -0.0163016 -0.217195 -0.266636 -0.0106976 -0.216937 
-0.265888 -0.00019647 -0.218243 -0.259384 -0.00050118 -0.215494 -0.262541 0.00283365 -0.215594 
-0.270802 0.00613994 -0.218916 -0.26771 0.0157491 -0.217815 -0.262606 0.0145298 -0.215849 
-0.276349 0.0298463 -0.21841 -0.275944 0.0312894 -0.215656 -0.262325 -0.021382 -0.214585 
-0.255043 -0.0165106 -0.212205 -0.255148 -0.0134932 -0.212886 -0.253649 -0.0104515 -0.212529 
-0.261941 -0.00425753 -0.215355 -0.256927 0.00326783 -0.213193 -0.258633 0.0065314 -0.214846 
-0.260303 0.012466 -0.215208 -0.286724 0.0436704 -0.216521 -0.247719 -0.010316 -0.209061 
-0.247991 -0.00643468 -0.210453 -0.246566 8.25519e-05 -0.210018 -0.248095 0.00524263 -0.209376 
-0.251654 0.0107824 -0.210651 -0.249933 0.015303 -0.209322 -0.25259 0.0224725 -0.210451 
-0.275358 0.0463808 -0.211963 -0.260837 -0.0391227 -0.207982 -0.242597 -0.00704826 -0.207072 
-0.237922 -0.00703223 -0.205002 -0.23721 -0.000722825 -0.204991 -0.233314 -3.65901e-05 -0.204414 
-0.24258 0.00560305 -0.207048 -0.237638 0.00912276 -0.205926 -0.245087 0.0122858 -0.208782 
-0.259553 0.0464432 -0.205804 -0.24045 -0.0350493 -0.202325 -0.233047 -0.0101046 -0.203782 
-0.229964 -0.00933218 -0.202563 -0.22763 0.00390114 -0.201882 -0.231852 0.00860246 -0.203532 
-0.228671 0.0145109 -0.201555 -0.229991 0.0190447 -0.201512 -0.257548 0.0438749 -0.204288 
-0.243322 -0.0384288 -0.201363 -0.239208 -0.0415166 -0.199311 -0.228917 -0.0261212 -0.198655 
-0.222189 -0.00953159 -0.198574 -0.227186 -0.00503736 -0.20066 -0.221609 -0.00610789 -0.199316 
-0.218387 -0.00582619 -0.198007 -0.223963 0.000752188 -0.199306 -0.225291 0.00551068 -0.200843 
-0.225481 0.0156989 -0.198996 -0.223694 0.0232305 -0.198338 -0.233757 0.0324775 -0.200266 
-0.221088 -0.024475 -0.195703 -0.214781 -0.0230934 -0.194531 -0.216174 -0.0112127 -0.196598 
-0.210304 -0.00314425 -0.194651 -0.217491 0.00511477 -0.197608 -0.215037 0.00660184 -0.196395 
-0.213816 0.00303919 -0.196083 -0.217458 0.00847244 -0.196853 -0.212136 0.0106486 -0.195053 
-0.216364 0.0232509 -0.194425 -0.22159 0.0285995 -0.196166 -0.225788 0.0403912 -0.194609 
-0.248207 0.053988 -0.197542 -0.229904 -0.0501327 -0.192506 -0.209898 -0.0154856 -0.192428 
-0.207403 0.0125866 -0.191732 -0.209008 0.0240049 -0.191968 -0.213352 0.0255886 -0.192305 
-0.218882 0.0326535 -0.194106 -0.223816 0.0379686 -0.194705 -0.209055 -0.0202706 -0.190095 
-0.208083 -0.0128935 -0.18855 -0.205471 0.0209353 -0.190004 -0.214611 0.0153648 -0.188353 
-0.203483 -0.00927957 -0.191472 -0.204542 -0.0237501 -0.190209 -0.203226 0.0130922 -0.190983 
-0.203372 -0.0180641 -0.189419 -0.20376 0.0294789 -0.188586 -0.202896 -0.00392057 -0.182182 
-0.200858 0.00493131 -0.190648 -0.200419 -0.0123051 -0.189887 -0.0517055 0.0118734 -0.126365 
-0.0689301 0.0277808 -0.129735 -0.0855595 0.0108032 -0.12729 -0.0771645 0.00736373 -0.128393 
-0.0829448 0.00653787 -0.126908 -0.199285 -0.0172282 -0.188677 -0.0721974 -0.0170728 -0.125518 
-0.197911 -0.0104781 -0.189041 -0.192024 -0.00364702 -0.186888 -0.194836 -0.00338736 -0.188062 
-0.198609 0.000747355 -0.188506 -0.0692852 0.0463066 -0.128867 -0.0824973 -0.00396266 -0.126856 
-0.18945 -0.0161612 -0.184832 -0.19563 -0.0134651 -0.186647 -0.190664 -0.0111129 -0.185935 
-0.190653 -0.00720693 -0.18511 -0.189891 -0.00167727 -0.186018 -0.187262 0.00337802 -0.183878 
-0.183928 0.000127599 -0.183496 -0.186029 0.0118766 -0.183848 -0.194781 0.0303529 -0.184646 
-0.197802 0.0327867 -0.185007 -0.19873 0.0357029 -0.185129 -0.19 -0.04006 -0.180159 
-0.188887 -0.0269052 -0.18302 -0.181146 -0.0262711 -0.179896 -0.184376 -0.0225341 -0.18198 
-0.179533 -0.0177403 -0.18055 -0.18527 -0.0146623 -0.183285 -0.189872 -0.0125525 -0.182188 
-0.18379 -0.011839 -0.18301 -0.179357 -0.0125761 -0.18109 -0.181384 -0.00719933 -0.181203 
-0.0501047 -0.0228063 -0.125657 -0.17753 -0.00363797 -0.180738 -0.17761 -0.00690802 -0.179694 
-0.176937 0.00871483 -0.180294 -0.178048 0.0115177 -0.180528 -0.184503 0.0169395 -0.181671 
-0.190364 0.0269271 -0.182435 -0.183316 0.0249137 -0.181 -0.179156 -0.0303318 -0.1771 
-0.17516 -0.0188237 -0.178646 -0.176476 -0.0148806 -0.178569 -0.171201 -0.00886046 -0.177763 
-0.175025 -0.00416097 -0.17735 -0.167507 -0.00288562 -0.176603 -0.173388 0.000622889 -0.17793 
-0.174068 0.0042769 -0.179437 -0.174281 0.00727702 -0.179284 -0.169388 0.00544136 -0.176281 
-0.172741 0.0115136 -0.177185 -0.168199 0.0118686 -0.176345 -0.172789 0.016502 -0.176796 
-0.173143 0.0261185 -0.176522 -0.181416 -0.0416642 -0.176072 -0.171192 -0.0285262 -0.175377 
-0.168944 -0.022905 -0.175344 -0.169461 -0.0175088 -0.175385 -0.161966 -0.0118763 -0.172803 
-0.173379 -0.0106377 -0.17414 -0.168465 -0.00962518 -0.175272 -0.164804 -0.00578793 -0.175448 
-0.159559 -0.00281436 -0.173233 -0.164239 0.000870053 -0.174154 -0.162518 0.0119482 -0.173983 
-0.170946 0.0225136 -0.1752 -0.164076 0.0223412 -0.173438 -0.152981 -0.0192043 -0.168968 
-0.154933 -0.0169297 -0.170395 -0.15703 -0.0132934 -0.170624 -0.162281 -0.0060357 -0.170772 
[...]
POINT_DATA 738
FIELD FieldData 7
id 1 738 int
292 2 184 99 7 1 33 22 21 
5 6 142 60 23 58 11 13 36 
28 41 38 10 57 92 8 130 40 
79 101 48 126 54 67 4 42 63 
14 46 44 59 53 49 29 75 93 
76 88 83 43 162 20 62 122 104 
50 134 45 15 87 148 72 114 18 
100 85 70 51 71 163 132 181 116 
69 17 177 154 61 192 166 64 158 
174 37 81 147 39 52 120 47 84 
35 77 74 109 94 12 96 156 145 
55 65 73 133 98 82 91 245 138 
111 157 25 150 95 118 233 146 137 
112 200 167 182 188 136 222 176 103 
110 125 86 175 187 196 304 244 274 
124 231 89 143 66 139 159 186 90 
257 270 80 105 203 78 128 281 234 
227 140 268 232 144 204 246 209 153 
127 113 97 198 327 171 194 224 170 
228 202 121 135 216 191 123 185 141 
178 215 161 201 165 117 102 243 155 
164 259 277 265 287 211 218 239 262 
131 206 238 230 290 129 119 152 252 
302 282 180 151 271 199 205 275 219 
149 260 220 314 309 272 300 278 258 
183 347 214 279 288 342 210 223 295 
254 318 293 208 337 289 189 299 372 
236 251 537 496 502 471 494 212 523 
250 284 172 190 436 467 221 115 106 
193 207 307 308 160 311 301 325 320 
286 312 315 107 249 317 169 225 217 
493 168 235 310 197 266 256 323 355 
313 229 346 344 379 240 345 333 305 
269 261 267 324 348 365 413 179 253 
297 378 247 285 280 322 242 213 373 
321 241 359 331 341 226 352 370 255 
381 237 338 358 328 248 316 273 329 
349 291 283 380 389 264 173 392 332 
319 350 405 403 303 374 371 376 391 
335 330 394 326 367 384 354 334 411 
294 336 393 396 296 306 415 386 377 
395 414 406 425 388 276 400 339 298 
362 441 432 409 385 382 402 429 442 
407 369 383 356 404 398 360 351 430 
428 448 387 375 426 424 410 401 463 
437 452 343 408 457 412 364 447 399 
340 357 419 397 446 417 363 479 492 
423 390 440 427 480 475 478 421 464 
418 434 460 368 458 472 465 450 513 
453 490 500 469 416 431 353 422 433 
476 455 468 504 482 438 439 466 435 
483 525 195 535 361 514 470 366 445 
443 495 474 507 461 459 449 477 486 
532 512 487 473 498 420 481 444 491 
566 528 503 533 558 509 484 511 489 
742 741 745 748 524 517 751 542 740 
747 559 746 499 519 577 552 454 527 
497 589 563 506 534 584 548 573 596 
568 588 520 544 488 565 602 505 485 
462 541 570 521 510 576 585 536 540 
526 578 572 543 554 529 501 522 587 
539 508 594 518 546 603 575 582 547 
586 555 531 515 545 569 592 562 530 
549 607 579 516 556 581 580 551 608 
451 550 538 591 601 590 600 604 593 
597 567 571 583 599 564 561 605 574 
606 595 609 263 560 619 621 598 617 
618 557 553 620 615 614 456 622 616 
610 611 613 630 612 628 623 625 635 
634 632 629 626 627 633 624 631 641 
639 637 638 645 647 644 642 648 636 
643 655 646 658 654 640 660 656 650 
653 659 649 651 652 661 657 672 663 
667 674 670 665 671 673 662 669 664 
679 666 668 682 680 685 687 683 676 
686 681 678 675 684 697 677 698 693 
691 689 699 695 688 700 694 690 708 
710 696 705 692 706 712 702 713 709 
703 701 711 707 704 716 720 717 719 
722 725 723 721 715 718 724 714 738 
730 726 727 735 728 734 732 739 729 
736 737 733 731 744 750 749 743 752 

type 1 738 int
1 1 1 1 1 1 1 1 1 
1 1 1 1 1 1 1 1 1 
1 1 1 1 1 1 1 1 1 
1 1 1 1 1 1 1 1 1 
1 1 1 1 1 1 1 1 1 
1 1 1 1 1 1 1 1 1 
1 1 1 1 1 1 1 1 1 
1 1 1 1 1 1 1 1 1 
1 1 1 1 1 1 1 1 1 
1 1 1 1 1 1 1 1 1 
1 1 1 1 1 1 1 1 1 
1 1 1 1 1 1 1 1 1 
1 1 1 1 1 1 1 1 1 
1 1 1 1 1 1 1 1 1 
1 1 1 1 1 1 1 1 1 
1 1 1 1 1 1 1 1 1 
1 1 1 1 1 1 1 1 1 
1 1 1 1 1 1 1 1 1 
1 1 1 1 1 1 1 1 1 
1 1 1 1 1 1 1 1 1 
1 1 1 1 1 1 1 1 1 
1 1 1 1 1 1 1 1 1 
1 1 1 1 1 1 1 1 1 
1 1 1 1 1 1 1 1 1 
1 1 1 1 1 1 1 1 1 
1 1 1 1 1 1 1 1 1 
1 1 1 1 1 1 1 1 1 
1 1 1 1 1 1 1 1 1 
1 1 1 1 1 1 1 1 1 
1 1 1 1 1 1 1 1 1 
1 1 1 1 1 1 1 1 1 
1 1 1 1 1 1 1 1 1 
1 1 1 1 1 1 1 1 1 
1 1 1 1 1 1 1 1 1 
1 1 1 1 1 1 1 1 1 
1 1 1 1 1 1 1 1 1 
1 1 1 1 1 1 1 1 1 
1 1 1 1 1 1 1 1 1 
1 1 1 1 1 1 1 1 1 
1 1 1 1 1 1 1 1 1 
1 1 1 1 1 1 1 1 1 
1 1 1 1 1 1 1 1 1 
1 1 1 1 1 1 1 1 1 
1 1 1 1 1 1 1 1 1 
1 1 1 1 1 1 1 1 1 
1 1 1 1 1 1 1 1 1 
1 1 1 1 1 1 1 1 1 
1 1 1 1 1 1 1 1 1 
1 1 1 1 1 1 1 1 1 
1 1 1 1 1 1 1 1 1 
1 1 1 1 1 1 1 1 1 
1 1 1 1 1 1 1 1 1 
1 1 1 1 1 1 1 1 1 
1 1 1 1 1 1 1 1 1 
1 1 1 1 1 1 1 1 1 
1 1 1 1 1 1 1 1 1 
1 1 1 1 1 1 1 1 1 
1 1 1 1 1 1 1 1 1 
1 1 1 1 1 1 1 1 1 
1 1 1 1 1 1 1 1 1 
1 1 1 1 1 1 1 1 1 
1 1 1 1 1 1 1 1 1 
1 1 1 1 1 1 1 1 1 
1 1 1 1 1 1 1 1 1 
1 1 1 1 1 1 1 1 1 
1 1 1 1 1 1 1 1 1 
1 1 1 1 1 1 1 1 1 
1 1 1 1 1 1 1 1 1 
1 1 1 1 1 1 1 1 1 
1 1 1 1 1 1 1 1 1 
1 1 1 1 1 1 1 1 1 
1 1 1 1 1 1 1 1 1 
1 1 1 1 1 1 1 1 1 
1 1 1 1 1 1 1 1 1 
1 1 1 1 1 1 1 1 1 
1 1 1 1 1 1 1 1 1 
1 1 1 1 1 1 1 1 1 
1 1 1 1 1 1 1 1 1 
1 1 1 1 1 1 1 1 1 
1 1 1 1 1 1 1 1 1 
1 1 1 1 1 1 1 1 1 
1 1 1 1 1 1 1 1 1 

i 3 738 int
0 0 0 0 0 0 0 0 0 
0 0 0 0 0 0 0 0 0 
0 0 0 0 0 0 0 0 0 
0 0 0 0 0 0 0 0 0 
0 0 0 0 0 0 0 0 0 
0 0 0 0 0 0 0 0 0 
0 0 0 0 0 0 0 0 0 
0 0 0 0 0 0 0 0 0 
0 0 0 0 0 0 0 0 0 
0 0 0 0 0 0 0 0 0 
0 0 0 0 0 0 0 0 0 
0 0 0 0 0 0 0 0 0 
0 0 0 0 0 0 0 0 0 
0 0 0 0 0 0 0 0 0 
0 0 0 0 0 0 0 0 0 
0 0 0 0 0 0 0 0 0 
0 0 0 0 0 0 0 0 0 
0 0 0 0 0 0 0 0 0 
0 0 0 0 0 0 0 0 0 
0 0 0 0 0 0 0 0 0 
0 0 0 0 0 0 0 0 0 
0 0 0 0 0 0 0 0 0 
0 0 0 0 0 0 0 0 0 
0 0 0 0 0 0 0 0 0 
0 0 0 0 0 0 0 0 0 
0 0 0 0 0 0 0 0 0 
0 0 0 0 0 0 0 0 0 
0 0 0 0 0 0 0 0 0 
0 0 0 0 0 0 0 0 0 
0 0 0 0 0 0 0 0 0 
0 0 0 0 0 0 0 0 0 
0 0 0 0 0 0 0 0 0 
0 0 0 0 0 0 0 0 0 
0 0 0 0 0 0 0 0 0 
0 0 0 0 0 0 0 0 0 
0 0 0 0 0 0 0 0 0 
0 0 0 0 0 0 0 0 0 
0 0 0 0 0 0 0 0 0 
0 0 0 0 0 0 0 0 0 
0 0 0 0 0 0 0 0 0 
0 0 0 0 0 0 0 0 0 
0 0 0 0 0 0 0 0 0 
0 0 0 0 0 0 0 0 0 
0 0 0 0 0 0 0 0 0 
0 0 0 0 0 0 0 0 0 
0 0 0 0 0 0 0 0 0 
0 0 0 0 0 0 0 0 0 
0 0 0 0 0 0 0 0 0 
0 0 0 0 0 0 0 0 0 
0 0 0 0 0 0 0 0 0 
0 0 0 0 0 0 0 0 0 
0 0 0 0 0 0 0 0 0 
0 0 0 0 0 0 0 0 0 
0 0 0 0 0 0 0 0 0 
0 0 0 0 0 0 0 0 0 
0 0 0 0 0 0 0 0 0 
0 0 0 0 0 0 0 0 0 
0 0 0 0 0 0 0 0 0 
0 0 0 0 0 0 0 0 0 
0 0 0 0 0 0 0 0 0 
0 0 0 0 0 0 0 0 0 
0 0 0 0 0 0 0 0 0 
0 0 0 0 0 0 0 0 0 
0 0 0 0 0 0 0 0 0 
0 0 0 0 0 0 0 0 0 
0 0 0 0 0 0 0 0 0 
0 0 0 0 0 0 0 0 0 
0 0 0 0 0 0 0 0 0 
0 0 0 0 0 0 0 0 0 
0 0 0 0 0 0 0 0 0 
0 0 0 0 0 0 0 0 0 
0 0 0 0 0 0 0 0 0 
0 0 0 0 0 0 0 0 0 
0 0 0 0 0 0 0 0 0 
0 0 0 0 0 0 0 0 0 
0 0 0 0 0 0 0 0 0 
0 0 0 0 0 0 0 0 0 
0 0 0 0 0 0 0 0 0 
0 0 0 0 0 0 0 0 0 
0 0 0 0 0 0 0 0 0 
0 0 0 0 0 0 0 0 0 
0 0 0 0 0 0 0 0 0 
0 0 0 0 0 0 0 0 0 
0 0 0 0 0 0 0 0 0 
0 0 0 0 0 0 0 0 0 
0 0 0 0 0 0 0 0 0 
0 0 0 0 0 0 0 0 0 
0 0 0 0 0 0 0 0 0 
0 0 0 0 0 0 0 0 0 
0 0 0 0 0 0 0 0 0 
0 0 0 0 0 0 0 0 0 
0 0 0 0 0 0 0 0 0 
0 0 0 0 0 0 0 0 0 
0 0 0 0 0 0 0 0 0 
0 0 0 0 0 0 0 0 0 
0 0 0 0 0 0 0 0 0 
0 0 0 0 0 0 0 0 0 
0 0 0 0 0 0 0 0 0 
0 0 0 0 0 0 0 0 0 
0 0 0 0 0 0 0 0 0 
0 0 0 0 0 0 0 0 0 
0 0 0 0 0 0 0 0 0 
0 0 0 0 0 0 0 0 0 
0 0 0 0 0 0 0 0 0 
0 0 0 0 0 0 0 0 0 
0 0 0 0 0 0 0 0 0 
0 0 0 0 0 0 0 0 0 
0 0 0 0 0 0 0 0 0 
0 0 0 0 0 0 0 0 0 
0 0 0 0 0 0 0 0 0 
0 0 0 0 0 0 0 0 0 
0 0 0 0 0 0 0 0 0 
0 0 0 0 0 0 0 0 0 
0 0 0 0 0 0 0 0 0 
0 0 0 0 0 0 0 0 0 
0 0 0 0 0 0 0 0 0 
0 0 0 0 0 0 0 0 0 
0 0 0 0 0 0 0 0 0 
0 0 0 0 0 0 0 0 0 
0 0 0 0 0 0 0 0 0 
0 0 0 0 0 0 0 0 0 
0 0 0 0 0 0 0 0 0 
0 0 0 0 0 0 0 0 0 
0 0 0 0 0 0 0 0 0 
0 0 0 0 0 0 0 0 0 
0 0 0 0 0 0 0 0 0 
0 0 0 0 0 0 0 0 0 
0 0 0 0 0 0 0 0 0 
0 0 0 0 0 0 0 0 0 
0 0 0 0 0 0 0 0 0 
0 0 0 0 0 0 0 0 0 
0 0 0 0 0 0 0 0 0 
0 0 0 0 0 0 0 0 0 
0 0 0 0 0 0 0 0 0 
0 0 0 0 0 0 0 0 0 
0 0 0 0 0 0 0 0 0 
0 0 0 0 0 0 0 0 0 
0 0 0 0 0 0 0 0 0 
0 0 0 0 0 0 0 0 0 
0 0 0 0 0 0 0 0 0 
0 0 0 0 0 0 0 0 0 
0 0 0 0 0 0 0 0 0 
0 0 0 0 0 0 0 0 0 
0 0 0 0 0 0 0 0 0 
0 0 0 0 0 0 0 0 0 
0 0 0 0 0 0 0 0 0 
0 0 0 0 0 0 0 0 0 
0 0 0 0 0 0 0 0 0 
0 0 0 0 0 0 0 0 0 
0 0 0 0 0 0 0 0 0 
0 0 0 0 0 0 0 0 0 
0 0 0 0 0 0 0 0 0 
0 0 0 0 0 0 0 0 0 
0 0 0 0 0 0 0 0 0 
0 0 0 0 0 0 0 0 0 
0 0 0 0 0 0 0 0 0 
0 0 0 0 0 0 0 0 0 
0 0 0 0 0 0 0 0 0 
0 0 0 0 0 0 0 0 0 
0 0 0 0 0 0 0 0 0 
0 0 0 0 0 0 0 0 0 
0 0 0 0 0 0 0 0 0 
0 0 0 0 0 0 0 0 0 
0 0 0 0 0 0 0 0 0 
0 0 0 0 0 0 0 0 0 
0 0 0 0 0 0 0 0 0 
0 0 0 0 0 0 0 0 0 
0 0 0 0 0 0 0 0 0 
0 0 0 0 0 0 0 0 0 
0 0 0 0 0 0 0 0 0 
0 0 0 0 0 0 0 0 0 
0 0 0 0 0 0 0 0 0 
0 0 0 0 0 0 0 0 0 
0 0 0 0 0 0 0 0 0 
0 0 0 0 0 0 0 0 0 
0 0 0 0 0 0 0 0 0 
0 0 0 0 0 0 0 0 0 
0 0 0 0 0 0 0 0 0 
0 0 0 0 0 0 0 0 0 
0 0 0 0 0 0 0 0 0 
0 0 0 0 0 0 0 0 0 
0 0 0 0 0 0 0 0 0 
0 0 0 0 0 0 0 0 0 
0 0 0 0 0 0 0 0 0 
0 0 0 0 0 0 0 0 0 
0 0 0 0 0 0 0 0 0 
0 0 0 0 0 0 0 0 0 
0 0 0 0 0 0 0 0 0 
0 0 0 0 0 0 0 0 0 
0 0 0 0 0 0 0 0 0 
0 0 0 0 0 0 0 0 0 
0 0 0 0 0 0 0 0 0 
0 0 0 0 0 0 0 0 0 
0 0 0 0 0 0 0 0 0 
0 0 0 0 0 0 0 0 0 
0 0 0 0 0 0 0 0 0 
0 0 0 0 0 0 0 0 0 
0 0 0 0 0 0 0 0 0 
0 0 0 0 0 0 0 0 0 
0 0 0 0 0 0 0 0 0 
0 0 0 0 0 0 0 0 0 
0 0 0 0 0 0 0 0 0 
0 0 0 0 0 0 0 0 0 
0 0 0 0 0 0 0 0 0 
0 0 0 0 0 0 0 0 0 
0 0 0 0 0 0 0 0 0 
0 0 0 0 0 0 0 0 0 
0 0 0 0 0 0 0 0 0 
0 0 0 0 0 0 0 0 0 
0 0 0 0 0 0 0 0 0 
0 0 0 0 0 0 0 0 0 
0 0 0 0 0 0 0 0 0 
0 0 0 0 0 0 0 0 0 
0 0 0 0 0 0 0 0 0 
0 0 0 0 0 0 0 0 0 
0 0 0 0 0 0 0 0 0 
0 0 0 0 0 0 0 0 0 
0 0 0 0 0 0 0 0 0 
0 0 0 0 0 0 0 0 0 
0 0 0 0 0 0 0 0 0 
0 0 0 0 0 0 0 0 0 
0 0 0 0 0 0 0 0 0 
0 0 0 0 0 0 0 0 0 
0 0 0 0 0 0 0 0 0 
0 0 0 0 0 0 0 0 0 
0 0 0 0 0 0 0 0 0 
0 0 0 0 0 0 0 0 0 
0 0 0 0 0 0 0 0 0 
0 0 0 0 0 0 0 0 0 
0 0 0 0 0 0 0 0 0 
0 0 0 0 0 0 0 0 0 
0 0 0 0 0 0 0 0 0 
0 0 0 0 0 0 0 0 0 
0 0 0 0 0 0 0 0 0 
0 0 0 0 0 0 0 0 0 
0 0 0 0 0 0 0 0 0 
0 0 0 0 0 0 0 0 0 
0 0 0 0 0 0 0 0 0 
0 0 0 0 0 0 0 0 0 
0 0 0 0 0 0 0 0 0 
0 0 0 0 0 0 0 0 0 
0 0 0 0 0 0 0 0 0 
0 0 0 0 0 0 0 0 0 
0 0 0 0 0 0 0 0 0 
0 0 0 0 0 0 0 0 0 
0 0 0 0 0 0 0 0 0 

v 3 738 double
-1.05368 0.0855229 -0.56824 -1.12274 0.0154003 -1.85255 -0.861219 0.0114447 -0.362521 
-1.29568 0.280331 -1.85794 -1.28265 -0.0239591 -1.74956 -1.26435 0.0221371 -1.7913 
-1.18685 -0.0202596 -1.72409 -1.14007 0.0619945 -1.72303 -1.27086 -0.0159577 -1.69054 
-1.25753 0.0630385 -1.67081 -1.17123 0.0260053 -1.63192 -1.36559 -0.0590547 -1.87241 
-1.17479 0.0230187 -1.61851 -1.20375 0.00503665 -1.57049 -1.28551 0.102613 -1.65378 
-1.22067 0.0285474 -1.55856 -1.21196 0.0390049 -1.52885 -1.08435 0.0642844 -1.51459 
-1.2302 0.00574051 -1.55315 -1.24643 -0.117866 -1.54113 -1.0323 0.152826 -1.4984 
-1.116 0.019221 -1.45861 -1.22662 -0.116708 -1.47759 -1.34796 0.269572 -1.51744 
-1.22068 -0.298572 -1.50543 -1.37075 -0.249623 -1.46599 -1.19979 -0.0555813 -1.40449 
-1.10241 -0.0910185 -1.37488 -1.20344 -0.0768672 -1.3698 -1.19319 -0.0892842 -1.37711 
-1.19839 0.239857 -1.51413 -1.08092 -0.0613343 -1.28346 -1.27485 0.17461 -1.33078 
-1.31844 0.0999611 -1.28248 -1.07951 0.0100131 -1.24626 -0.973525 -0.054984 -1.20092 
-1.20031 -0.116061 -1.24293 -1.1745 -0.054974 -1.20895 -1.16531 -0.100774 -1.20365 
-1.277 -0.273313 -1.27603 -0.950694 -0.0282768 -1.18303 -1.21623 0.0824053 -1.14525 
-1.16483 0.0470791 -1.13718 -1.27791 -0.159827 -1.25236 -1.11646 -0.190801 -1.09568 
-1.22816 0.208558 -1.14493 -1.00125 -0.056749 -1.0349 -1.13593 0.0982091 -1.07614 
-1.14832 -0.0493155 -1.08999 -1.07355 0.0243757 -1.02268 -1.15392 0.253472 -1.06772 
-1.16496 0.313566 -1.06917 -0.927985 -0.0893705 -1.02117 -1.24862 0.224029 -1.10045 
-1.14927 0.0317068 -0.978582 -0.916792 0.00792413 -1.02004 -1.0702 0.0723754 -0.983202 
-1.16235 0.0278991 -0.974699 -1.08106 0.0368958 -0.933843 -1.12405 -0.115274 -0.952914 
-1.0697 -0.178245 -0.992507 -1.25689 0.0342867 -1.03791 -1.1263 -0.0230756 -0.887863 
-1.06719 -0.01735 -0.810209 -1.05461 -0.0269159 -0.900185 -1.15631 -0.04943 -0.838559 
-1.13458 0.0303929 -0.853608 -1.15352 0.0596096 -0.832984 -1.2255 0.338249 -0.996897 
-1.08618 -0.129173 -0.738058 -1.06918 0.00527484 -0.820946 -1.04079 0.00651297 -0.709378 
-1.10517 0.0370108 -0.779648 -1.13677 0.0257101 -0.71876 -1.21306 -0.0523629 -0.816588 
-1.25934 -0.101095 -0.739 -1.18328 0.102491 -0.68697 -1.08167 -0.0200369 -0.621656 
-1.05827 0.0730597 -0.601542 -1.09304 0.0583722 -0.596818 -1.08849 -0.0675976 -0.694991 
-1.15856 0.079826 -0.63516 -1.17128 -0.0833829 -0.670463 -1.31752 0.207942 -0.721857 
-1.03919 0.197265 -0.637692 -1.09286 0.0703228 -0.618779 -1.08858 -0.00313056 -0.608805 
-1.26404 0.214881 -0.663895 -1.04712 0.0604206 -0.554677 -0.961548 0.0916634 -0.52846 
-0.904167 0.0845592 -0.44387 -1.07089 0.0764774 -0.565045 -0.951131 -0.0228196 -0.418239 
-0.973134 0.0703171 -0.527501 -0.941809 0.177325 -0.40601 -0.971626 0.220963 -0.456738 
-1.07232 0.0897973 -0.441439 -1.02368 -0.00340742 -0.442691 -1.06497 -0.0660034 -0.463028 
-1.04743 -0.145472 -0.450727 -1.06973 -0.0390535 -0.500794 -1.0245 -0.0395924 -0.427339 
-1.04446 -0.0227815 -0.449326 -1.02219 -0.03285 -0.43407 -1.05417 0.0584524 -0.446096 
-0.890193 -0.0398723 -0.480225 -1.08383 -0.051568 -0.366275 -1.22252 -0.115081 -0.4546 
-0.835764 0.0857254 -0.355802 -1.24209 -0.0948567 -0.52979 -1.01381 -0.0369524 -0.429268 
-1.06183 -0.0550893 -0.450158 -1.02523 -0.021201 -0.50921 -1.00365 -0.0926939 -0.429226 
-0.886289 -0.129696 -0.40668 -0.988256 0.109287 -0.40741 -1.07018 0.1249 -0.413758 
-1.071 0.176431 -0.504188 -1.07498 0.0763163 -0.44031 -0.991359 0.127795 -0.624991 
-1.15675 0.0339914 -0.48902 -0.957156 0.0991129 -0.416593 -0.956643 0.0766632 -0.347345 
-1.23645 -0.110416 -0.537661 -0.900581 0.112593 -0.391074 -1.06646 0.310137 -0.288003 
-1.00077 -0.0397436 -0.422696 -0.843564 -0.00333577 -0.381563 -0.899887 0.123533 -0.380999 
-0.990563 0.0521059 -0.529123 -0.862696 0.186599 -0.383549 -1.07104 0.173175 -0.458175 
-1.33831 -0.205037 -0.473233 -1.1529 0.149528 -0.477119 -1.14203 -0.0811755 -0.486499 
-1.12079 -0.407943 -0.648651 -1.21157 0.00468714 -0.534202 -0.956374 0.129624 -0.410699 
-1.02341 -0.0222699 -0.432751 -1.08919 -0.0861063 -0.475717 -1.10972 -0.132552 -0.475518 
-1.17221 0.0847908 -0.519473 -1.00071 0.0359326 -0.424689 -1.01971 0.0379681 -0.431774 
-0.91973 0.105903 -0.373618 -1.18005 -0.120073 -0.543403 -1.15248 -0.0782492 -0.4805 
-1.11736 -0.0257008 -0.483084 -1.03654 -0.0931034 -0.414258 -1.0199 0.00521644 -0.432002 
-0.996764 -0.0384721 -0.421215 -1.034 0.197312 -0.385647 -0.881651 0.13332 -0.303664 
-0.901812 0.0438601 -0.377992 -0.998823 -0.115478 -0.434495 -1.20721 -0.04861 -0.49147 
-1.01804 -0.0292425 -0.423671 -0.876181 -0.0808253 -0.357137 -0.934037 -0.0349996 -0.386546 
-0.873318 0.0103757 -0.368923 -0.723965 0.034384 -0.306183 -0.914957 -0.00576823 -0.389645 
-1.03916 -0.049539 -0.449402 -1.0283 -0.216626 -0.469301 -0.96419 -0.0224802 -0.405477 
-0.886368 -0.00778567 -0.381782 -0.994841 0.0624406 -0.354331 -1.03825 -0.12496 -0.420386 
-1.02286 -0.0574831 -0.442823 -0.872917 0.00427294 -0.364965 -0.913895 0.075959 -0.46149 
-0.993068 0.0499798 -0.415858 -0.952075 0.0574909 -0.396027 -0.893081 0.0361076 -0.372204 
-0.948419 -0.0201811 -0.404049 -1.17171 -0.342455 -0.602153 -1.01905 -0.00517373 -0.426937 
-0.907137 -0.0603272 -0.381127 -0.868974 -0.0290024 -0.366805 -0.899201 -0.0439616 -0.377961 
-0.994606 -0.0170989 -0.421164 -0.953494 -0.0271822 -0.405226 -0.967338 -0.0908341 -0.415274 
-1.1284 -0.475515 -0.650929 -1.01398 0.123899 -0.457524 -0.931082 -0.042369 -0.392062 
-0.91634 -0.0904175 -0.40264 -0.697921 -0.0274989 -0.29946 -0.702074 -0.00218144 -0.300021 
-0.924894 0.00736404 -0.392797 -0.795979 0.0376098 -0.330473 -1.03536 0.0522597 -0.358948 
-0.918369 -0.270025 -0.470164 -0.880465 0.125699 -0.369907 -0.915958 -0.0687896 -0.374789 
-0.89974 0.00878289 -0.373852 -0.721412 -0.0558584 -0.315196 -0.757245 -0.0118005 -0.315974 
-0.962638 -0.0338653 -0.403068 -0.940438 -0.0126915 -0.390916 -0.957069 -0.303673 -0.447321 
-0.971243 0.120365 -0.463988 -0.939242 -0.0118557 -0.452281 -0.881952 0.147112 -0.390173 
-0.752717 -0.0251928 -0.385331 -0.961015 0.0120398 -0.400912 -0.894708 0.0525574 -0.377094 
-0.787575 -0.118542 -0.315531 -0.942259 -0.0488335 -0.392959 -0.698179 0.0219834 -0.432901 
-0.987265 0.0986273 -0.389371 -0.806365 -0.067005 -0.35377 -0.976447 -0.176981 -0.441554 
-0.988412 -0.0116639 -0.398458 -0.979832 -0.0318451 -0.392855 -0.712775 -0.000436934 -0.295318 
-0.836705 0.0262635 -0.357165 -0.868802 -0.0721394 -0.363199 -0.876982 -0.02067 -0.425311 
-0.910498 -0.0901317 -0.390972 -0.847556 0.040942 -0.551627 -0.865149 0.197608 -0.338496 
-0.863144 0.0933188 -0.296705 -0.946015 -0.0050864 -0.386947 -1.0311 0.0508789 -0.384908 
-0.883131 -0.220114 -0.454286 -1.19076 0.0983616 -0.501153 -0.813277 -0.0488177 -0.343093 
-0.79557 -0.0181759 -0.341849 -0.760551 0.052527 -0.309768 -0.811729 -0.00382239 -0.381176 
-1.01149 -0.10854 -0.438303 -1.02339 0.0232328 -0.381173 -0.927067 -0.181403 -0.606929 
-0.786228 0.0305058 -0.414849 -0.77073 0.0100622 -0.317809 -1.04962 -0.0645066 -0.640312 
-0.798946 0.0498343 -0.335764 -1.03975 -0.238691 -0.41836 -0.776494 0.0697964 -0.323675 
-0.801501 -0.0446522 -0.333439 -0.97281 0.015083 -0.394764 -1.18726 0.0556993 -0.66899 
-0.772053 0.0997838 -0.315884 -0.841641 0.0575187 -0.353912 -0.620817 0.0586043 -0.269755 
-0.891581 0.104796 -0.307931 -0.812534 0.261272 -0.499463 -0.684838 -0.211031 -0.712806 
-0.661572 0.154889 -0.425948 -0.775059 -0.00621933 -0.353379 -0.833868 -0.126853 -0.510757 
-0.829885 0.0498053 -0.348428 -0.718183 0.0282295 -0.296014 -0.725534 -0.0189872 -0.301533 
-0.789872 -0.0129733 -0.30967 -0.672723 0.218716 -0.212278 -0.915656 -0.0736622 -0.384807 
-0.80487 -0.00292154 -0.33197 -0.842909 0.0105517 -0.373167 -0.773859 -0.0161325 -0.33061 
-0.822146 -0.0676815 -0.373181 -0.742968 0.0494941 -0.304586 -0.634229 0.00883048 -0.259663 
-0.687162 -0.0432039 -0.295368 -0.746753 -0.0192281 -0.313323 -0.768197 -0.0997837 -0.337201 
-0.909158 -0.0859345 -0.535075 -0.875946 -0.0415864 -0.371993 -0.881769 -0.0853404 -0.336834 
-0.809215 -0.0898338 -0.321368 -0.773436 -0.0427148 -0.305903 -0.755146 0.00264639 -0.312131 
-0.881634 0.37457 -0.408187 -0.834218 0.024757 -0.34737 -0.747762 -0.0201684 -0.417142 
-0.837976 0.0277511 -0.349323 -0.848036 0.0422861 -0.353837 -0.836429 0.00562289 -0.356231 
-0.403971 -0.0746484 -0.153463 -0.813387 0.0179524 -0.341351 -0.848396 -0.0211573 -0.203379 
-0.748653 0.00416482 -0.317857 -0.751521 0.00383449 -0.319104 -0.760099 0.0498759 -0.31264 
-0.896883 0.0103221 -0.368651 -0.831055 -0.124836 -0.375166 -0.996593 0.0801465 -0.421823 
-0.792973 0.0056541 -0.327679 -0.864913 0.00270278 -0.348405 -0.770084 -0.00244429 -0.335043 
-0.942616 0.0534255 -0.352692 -0.706934 -0.0546334 -0.289702 -0.763719 0.0215864 -0.304785 
-0.622421 0.078136 -0.26426 -0.717959 0.0881272 -0.298463 -0.737448 -0.0640904 -0.312682 
-0.717946 0.00353352 -0.299296 -0.684659 0.00349389 -0.285408 -0.717592 0.00293807 -0.299211 
-0.845372 -0.029774 -0.351029 -0.975628 -0.041935 -0.373507 -0.823028 -0.0676684 -0.345447 
-0.842119 -0.0564417 -0.327628 -0.794281 0.0416504 -0.318962 -0.709494 -0.0233283 -0.275683 
-1.09777 -0.181021 -0.248158 -0.918934 -0.215522 -0.66015 -0.710285 -0.0179586 -0.291228 
-0.660835 0.00876029 -0.271805 -0.831556 -0.134593 -0.359529 -0.677011 0.0650142 -0.27202 
-0.739486 -0.00281131 -0.312216 -0.885254 -0.0913544 -0.390619 -0.640859 0.0759152 -0.239571 
-0.795815 -0.00216869 -0.325296 -0.727588 -0.0323072 -0.299502 -0.943709 -0.0583093 -0.553123 
-0.653589 0.0034495 -0.268895 -0.874535 -0.0669522 -0.780111 -0.672856 0.0692422 -0.275741 
-0.765563 0.00771714 -0.307052 -0.856986 0.0543999 -0.341464 -0.787799 0.199732 -0.398627 
-0.847425 -0.172072 -0.522231 -0.724317 -0.0519431 -0.30539 -1.07021 -0.10653 -0.134496 
-0.616566 0.0348365 -0.244007 -0.664541 -0.0637461 -0.277428 -0.63355 -0.0827098 -0.163996 
-0.691449 -0.0244766 -0.293928 -0.615419 -0.0157409 -0.255062 -0.630843 -0.0275407 -0.259939 
-0.452517 -0.0602658 -0.180169 -0.613657 -0.0391417 -0.264585 -0.811575 -0.146662 -0.606331 
-0.822125 0.0731496 -0.344746 -0.808576 0.0809269 -0.321211 -0.809087 0.081724 -0.350155 
-0.707425 -0.0699879 -0.297018 -0.665952 0.00730468 -0.244796 -0.749665 0.0356018 -0.305419 
-0.887002 -0.0617714 -0.377959 -0.831839 0.000735996 -0.351827 -0.826044 -0.0164426 -0.345497 
-0.940283 -0.0393417 -0.388619 -0.8267 -0.00690571 -0.373931 -0.672156 0.00882066 -0.27939 
-0.597139 -0.0139045 -0.247581 -0.860488 0.0180023 -0.384962 -0.648451 0.0528594 -0.287192 
-0.653222 -0.0439199 -0.275147 -0.776806 0.0059449 -0.356678 -0.581813 0.024651 -0.252452 
-0.672762 0.136284 -0.2713 -0.785808 0.0921114 -0.318453 -0.905459 -0.0640102 -0.422171 