# vtk DataFile Version 4.0
Generated by LIGGGHTS
ASCII
DATASET POLYDATA
POINTS 646 float
-0.483066 -0.02045 -0.367148 -0.240341 0.0649066 -0.188151 -0.450725 0.000134251 -0.334546 
-0.43185 -0.00316707 -0.320007 -0.45276 -0.0449773 -0.31765 -0.436907 0.0328548 -0.315753 
-0.407208 -0.00365441 -0.303696 -0.418828 0.0186993 -0.305599 -0.422528 0.0327593 -0.300699 
-0.418582 0.0366191 -0.301486 -0.402186 0.0139992 -0.293768 -0.391886 -0.036059 -0.282072 
-0.400041 0.0129889 -0.28228 -0.383189 -0.00964823 -0.277183 -0.396443 -0.0351143 -0.275375 
-0.371377 0.0111149 -0.273519 -0.38183 0.0222073 -0.27403 -0.376415 -0.0264966 -0.27138 
-0.372927 -0.0262829 -0.270682 -0.372903 0.0145406 -0.269864 -0.378645 0.0188546 -0.2721 
-0.366038 -0.00686877 -0.266466 -0.371676 0.00678195 -0.268958 -0.363938 -0.00684594 -0.26414 
-0.353275 0.00160561 -0.258323 -0.354732 0.00958245 -0.259588 -0.351361 -0.0142184 -0.255601 
-0.352573 0.019242 -0.254297 -0.359902 0.0264095 -0.256956 -0.362203 0.031683 -0.257733 
-0.369982 0.0474332 -0.255663 -0.368689 -0.04585 -0.253928 -0.345244 -0.0131556 -0.250596 
-0.34541 0.00462287 -0.253296 -0.344408 -0.0234905 -0.248711 -0.338048 0.00501395 -0.248143 
-0.341089 0.023267 -0.248257 -0.324011 -0.00777592 -0.241196 -0.336147 -0.00221063 -0.249283 
-0.328434 0.000139104 -0.243713 -0.324773 0.0026315 -0.242959 -0.333445 0.00453112 -0.245808 
-0.333979 0.0187745 -0.244193 -0.334999 0.0254393 -0.244486 -0.321166 -0.015498 -0.239215 
-0.318181 -0.00879519 -0.23858 -0.315239 0.00218157 -0.238933 -0.317852 0.00759249 -0.238606 
-0.318627 -0.027258 -0.235459 -0.313914 -0.0112372 -0.236819 -0.30824 -0.00965323 -0.235624 
-0.308433 0.0009038 -0.235061 -0.306434 0.00469512 -0.235064 -0.315147 0.0130301 -0.23821 
-0.312251 -0.0115986 -0.232468 -0.306284 -0.0131732 -0.234361 -0.301353 0.000119061 -0.233214 
-0.299966 0.00268814 -0.232438 -0.303779 0.0211388 -0.231897 -0.31336 0.0292133 -0.233918 
-0.315063 0.0337336 -0.233054 -0.299312 -0.0250352 -0.229215 -0.296037 -0.0231392 -0.228348 
-0.293442 -0.0128623 -0.227963 -0.293184 -0.00899419 -0.229364 -0.292142 -0.00181715 -0.229256 
-0.29129 0.00109671 -0.228907 -0.288579 0.00372128 -0.227597 -0.297001 0.0288001 -0.227392 
-0.353367 -0.0622592 -0.226027 -0.304335 -0.0327431 -0.227889 -0.286675 -0.0106072 -0.22645 
-0.27862 -0.007386 -0.223362 -0.289492 0.0154097 -0.22705 -0.315046 0.0458925 -0.227752 
-0.296054 -0.0334559 -0.224285 -0.275308 -0.0142436 -0.220192 -0.27084 -0.00782285 -0.220056 
-0.279445 0.00820123 -0.222403 -0.274972 0.00949508 -0.221569 -0.275471 0.012763 -0.221145 
-0.291444 0.0309994 -0.22318 -0.265247 -0.0155111 -0.216898 -0.264387 -0.00953892 -0.217215 
-0.262179 -0.00765649 -0.216397 -0.267704 -0.00567112 -0.217724 -0.262875 -0.02128 -0.213889 
-0.261361 -0.0129101 -0.214483 -0.256991 -0.0112254 -0.213927 -0.259632 -0.00447616 -0.214373 
-0.25269 -0.0043899 -0.212532 -0.256191 0.0026564 -0.213994 -0.254433 0.00510469 -0.213151 
-0.268532 0.025933 -0.21525 -0.264248 -0.0385686 -0.210807 -0.263053 -0.0343036 -0.210675 
-0.260505 -0.0283946 -0.212348 -0.256515 -0.0214971 -0.212206 -0.250444 -0.0238535 -0.209305 
-0.254822 -0.0190283 -0.211964 -0.252067 -0.0188455 -0.210739 -0.270242 -0.00896056 -0.212139 
-0.262068 -0.00898606 -0.21015 -0.252883 -9.67064e-05 -0.21163 -0.250537 0.00666355 -0.210347 
-0.247111 0.00406334 -0.210092 -0.251859 0.0114073 -0.211796 -0.248899 0.0107047 -0.210584 
-0.25422 0.0155502 -0.211071 -0.255238 0.0226542 -0.211524 -0.256755 0.0278782 -0.210968 
-0.264421 0.0291388 -0.212522 -0.277324 -0.0543561 -0.208659 -0.244718 -0.016512 -0.208012 
-0.245018 -0.012308 -0.208765 -0.242358 -0.0132888 -0.207559 -0.238824 0.00690777 -0.206493 
-0.242163 0.00958489 -0.207809 -0.246455 0.0149068 -0.209001 -0.241109 0.0148011 -0.206772 
-0.251938 0.0326788 -0.20767 -0.245104 -0.0314066 -0.205172 -0.247944 -0.0183069 -0.200358 
-0.239461 -0.0138089 -0.204766 -0.2368 -0.0167955 -0.204823 -0.234497 -0.0150197 -0.203995 
-0.229404 -0.00865516 -0.202383 -0.232149 -0.00690307 -0.203658 -0.229391 0.00401683 -0.202634 
-0.236453 0.0106944 -0.205372 -0.235641 0.0143201 -0.204537 -0.236617 0.0230228 -0.203745 
-0.232434 -0.0324081 -0.198782 -0.234703 -0.0218099 -0.202991 -0.224845 -0.0152817 -0.199875 
-0.234676 -0.0129695 -0.201831 -0.224027 -0.00625561 -0.20034 -0.223509 0.00836752 -0.200046 
-0.264248 -0.0613599 -0.199162 -0.233879 -0.042377 -0.197096 -0.228591 -0.0355976 -0.197336 
-0.223933 -0.0267252 -0.197526 -0.22161 -0.0162214 -0.19731 -0.22168 -0.00250958 -0.19822 
-0.218005 0.00457436 -0.197832 -0.216166 0.0136958 -0.196366 -0.225957 0.0302572 -0.197305 
-0.2229 -0.0332254 -0.192938 -0.206376 -0.012472 -0.192334 -0.209913 -0.00367348 -0.193402 
-0.211363 0.0106929 -0.193637 -0.213781 0.0165201 -0.193962 -0.213172 0.0238315 -0.193768 
-0.221588 0.0399792 -0.191904 -0.234625 0.0462865 -0.194811 -0.211342 -0.0358888 -0.19019 
-0.209553 0.0009181 -0.190476 -0.207225 0.0225451 -0.190435 -0.205547 -0.00550816 -0.191564 
-0.20439 0.0169126 -0.189973 -0.20544 0.0148588 -0.182116 -0.203537 -0.00900299 -0.19151 
-0.203008 -0.0125562 -0.18967 -0.201588 0.0620726 -0.173955 -0.201042 -0.00231659 -0.189635 
-0.0598009 0.0157824 -0.129412 -0.0579854 0.0222844 -0.128146 -0.0892446 -0.00713844 -0.125172 
-0.197809 -0.00691019 -0.18824 -0.0830934 -0.00787653 -0.126493 -0.199942 0.00399828 -0.189175 
-0.0491086 0.0097905 -0.126072 -0.195658 0.0144573 -0.187691 -0.0664273 0.0392773 -0.128408 
-0.199475 -0.0332859 -0.184796 -0.198079 -0.0231781 -0.186533 -0.193307 -0.0112189 -0.187024 
-0.194033 -0.00762946 -0.187073 -0.190654 -0.00861669 -0.185142 -0.189965 -0.00102848 -0.184975 
-0.184906 -0.000937845 -0.183899 -0.186495 0.00193501 -0.184624 -0.192299 0.00548617 -0.187066 
-0.197028 0.00924944 -0.187695 -0.190209 0.00788928 -0.18599 -0.194889 0.0296695 -0.184832 
-0.186625 -0.0154315 -0.182725 -0.180293 -0.0129781 -0.18143 -0.182949 -0.00960524 -0.182929 
-0.181057 0.001339 -0.181147 -0.184867 0.00550563 -0.182856 -0.0559676 0.0122769 -0.128161 
-0.184445 0.0260118 -0.181254 -0.18829 -0.0425641 -0.177447 -0.187917 -0.0113317 -0.179626 
-0.189728 -0.00796699 -0.181277 -0.175908 -0.00849975 -0.178903 -0.169248 -0.00355121 -0.177208 
-0.176948 -0.00326792 -0.17942 -0.175993 0.00129931 -0.180187 -0.171389 -8.21521e-05 -0.17716 
-0.177554 0.00511493 -0.179775 -0.176009 0.00906617 -0.17981 -0.178525 0.0122283 -0.179583 
-0.172477 0.0122256 -0.177674 -0.181437 0.0213216 -0.179263 -0.167787 -0.0287752 -0.173934 
-0.167404 -0.00838941 -0.176423 -0.162372 -0.00938226 -0.174199 -0.187753 -0.00532884 -0.177701 
-0.174734 0.00544319 -0.176842 -0.163531 0.00524209 -0.174943 -0.164037 0.0180248 -0.174104 
-0.167969 0.0246276 -0.174636 -0.197908 0.0597202 -0.175168 -0.175787 -0.0436107 -0.172101 
-0.167421 -0.0335812 -0.171558 -0.163226 -0.0251382 -0.172713 -0.159459 -0.00912913 -0.172763 
-0.160413 -0.00435409 -0.172524 -0.152503 -0.00508288 -0.170288 -0.150956 -0.00166407 -0.16968 
-0.158216 0.007976 -0.172562 -0.161244 0.0151516 -0.173185 -0.176179 0.0503642 -0.171066 
-0.0632219 0.0413838 -0.127305 -0.15925 -0.0386916 -0.168009 -0.15155 -0.0201635 -0.167516 
-0.146123 -0.0177009 -0.166646 -0.148675 -0.0113279 -0.168338 -0.152861 -0.00930885 -0.168281 
-0.146581 -0.00340961 -0.167862 -0.154365 0.00180909 -0.169501 -0.146844 0.00487375 -0.167809 
-0.146538 0.0121298 -0.166796 -0.149198 0.0120188 -0.168404 -0.191293 0.0138604 -0.168239 
-0.153547 0.0138949 -0.168963 -0.19712 0.0216145 -0.167975 -0.156382 0.0251898 -0.16743 
-0.154492 0.0311781 -0.167781 -0.165049 0.041251 -0.169488 -0.18485 0.0630502 -0.168472 
-0.140271 -0.0147219 -0.164447 -0.13639 -0.016318 -0.162691 -0.146091 -0.013494 -0.165968 
-0.151806 -0.00905316 -0.163168 -0.139819 -0.0108761 -0.164645 -0.140328 -0.00477563 -0.165148 
-0.13784 -0.0060534 -0.163606 -0.155196 -0.00143891 -0.165369 -0.13579 -0.000971385 -0.163284 
-0.152388 0.00470173 -0.167511 -0.155596 0.0056564 -0.164814 -0.143486 0.00474257 -0.164818 
-0.145196 0.00980298 -0.163002 -0.136395 0.00945562 -0.163238 -0.151246 0.0202114 -0.165239 
-0.140531 0.0160444 -0.163083 -0.142975 0.0220758 -0.16372 -0.147004 0.0366192 -0.163548 
-0.195204 0.0737225 -0.165099 -0.130345 -0.0215191 -0.159472 -0.133303 -0.0167121 -0.160411 
-0.127805 -0.0146737 -0.159261 -0.134252 -0.0134585 -0.162074 -0.136635 -0.00966709 -0.162324 
-0.130322 -0.0062131 -0.159802 -0.126892 -0.000105233 -0.159333 -0.134262 0.00131502 -0.160208 
-0.13791 0.00435565 -0.162626 -0.125907 0.00622148 -0.15892 -0.143817 0.0109073 -0.15847 
-0.126605 0.0101083 -0.158964 -0.138163 0.0212505 -0.162743 -0.136296 0.0259334 -0.161335 
-0.13682 0.0315256 -0.160358 -0.136555 0.0348759 -0.159509 -0.143091 -0.0500024 -0.157823 
-0.127784 -0.0283426 -0.157369 -0.120347 -0.0172526 -0.155839 -0.125831 -0.0122226 -0.158599 
-0.12955 -0.0133618 -0.156896 -0.120792 -0.014216 -0.156337 -0.12418 -0.00744164 -0.157158 
-0.118404 -0.00743931 -0.1558 -0.131661 -0.00330177 -0.156107 -0.122735 -0.0037484 -0.157773 
-0.120467 0.00196441 -0.155732 -0.123342 0.00349966 -0.158046 -0.13615 0.0125068 -0.156974 
-0.123428 0.0094769 -0.156612 -0.129227 0.0143902 -0.158799 -0.123458 0.0147211 -0.156287 
-0.12781 0.0226529 -0.157113 -0.13316 0.0323233 -0.15794 -0.125614 0.0312065 -0.155862 
-0.123011 -0.0190954 -0.154108 -0.11789 -0.0191787 -0.153122 -0.129704 -0.0118498 -0.153028 
-0.116972 -0.0131701 -0.153723 -0.113149 -0.00799181 -0.152453 -0.114181 -0.00335661 -0.154156 
-0.117145 -0.00019272 -0.154693 -0.111823 -0.0017739 -0.153165 -0.119087 0.00944216 -0.153104 
-0.119963 0.0170933 -0.153616 -0.11266 0.015259 -0.152801 -0.142122 0.0197553 -0.153564 
-0.118678 -0.0433652 -0.149878 -0.11096 -0.0331707 -0.149352 -0.113159 -0.0208301 -0.152351 
-0.102306 -0.0204267 -0.147861 -0.107946 -0.00804277 -0.150258 -0.104764 -0.0110037 -0.149812 
-0.102086 -0.00370044 -0.14909 -0.1086 -0.000974422 -0.150708 -0.124284 0.000605602 -0.155271 
[...]
POINT_DATA 646
FIELD FieldData 7
id 1 646 int
9 124 16 30 34 31 19 3 26 
68 32 2 27 7 108 22 1 99 
33 21 5 6 60 23 13 36 10 
41 28 11 38 58 92 57 79 40 
8 63 142 54 42 101 130 48 4 
53 46 14 67 88 49 29 122 44 
162 83 134 45 43 93 59 20 62 
15 50 100 87 85 72 126 76 18 
132 148 75 104 116 69 51 70 71 
114 109 84 35 17 52 166 47 64 
156 158 174 177 147 39 61 74 112 
12 94 181 192 77 65 145 133 73 
154 37 233 91 163 125 96 111 25 
55 82 95 146 120 103 167 175 187 
200 138 136 150 118 98 176 245 196 
188 182 157 81 137 86 110 89 244 
143 274 222 231 186 90 227 66 198 
140 139 159 257 80 78 105 270 144 
203 216 128 383 410 425 204 393 153 
478 97 356 268 232 224 209 228 202 
123 185 121 127 135 113 171 194 170 
243 141 407 161 165 281 234 191 211 
117 155 102 164 259 178 262 215 287 
218 219 246 239 180 206 271 265 230 
129 119 252 152 149 236 260 131 238 
477 290 205 275 208 214 172 282 314 
288 220 304 151 327 278 258 199 183 
251 212 189 254 250 284 106 302 207 
309 277 289 279 160 292 318 223 210 
201 315 286 249 221 115 193 308 307 
190 310 300 197 184 299 311 325 347 
320 313 169 295 225 217 235 272 168 
240 333 293 269 266 267 256 301 323 
312 179 317 229 253 247 379 285 305 
242 261 342 107 348 365 237 241 321 
273 331 345 329 322 226 280 352 324 
355 337 328 316 372 248 338 335 374 
326 297 330 341 291 370 283 173 213 
294 255 381 371 359 349 380 389 264 
334 392 332 319 350 303 336 344 296 
358 276 394 298 354 373 405 339 362 
404 413 396 400 351 387 376 340 385 
375 378 395 382 384 369 432 398 346 
391 343 306 367 409 363 364 412 446 
388 418 408 636 647 397 643 646 479 
390 640 353 403 368 430 453 415 441 
366 445 419 492 414 421 417 638 422 
464 434 360 361 426 399 452 437 402 
450 469 386 357 427 466 490 472 465 
475 435 416 431 463 195 406 468 486 
460 423 377 428 493 454 482 476 448 
461 483 480 481 443 411 436 401 449 
457 499 433 487 447 424 420 491 442 
484 429 485 444 500 503 502 473 489 
458 504 470 462 467 459 501 488 440 
451 438 474 439 497 471 496 455 494 
498 506 456 505 495 509 510 263 512 
518 515 517 513 508 507 519 514 526 
516 511 531 524 523 530 525 528 532 
529 522 520 527 521 537 534 540 538 
542 535 543 545 539 544 541 553 536 
550 533 549 555 551 552 546 557 547 
554 556 548 565 570 563 558 561 560 
568 567 566 559 569 562 564 577 583 
573 578 580 582 572 575 576 574 581 
571 594 579 596 593 591 592 584 586 
588 589 595 585 590 587 602 607 608 
603 599 601 600 604 597 606 609 605 
617 618 619 621 598 614 620 615 622 
616 610 612 611 628 623 613 630 625 
635 634 632 627 629 626 633 624 631 
637 645 644 642 641 648 639 
type 1 646 int
1 1 1 1 1 1 1 1 1 
1 1 1 1 1 1 1 1 1 
1 1 1 1 1 1 1 1 1 
1 1 1 1 1 1 1 1 1 
1 1 1 1 1 1 1 1 1 
1 1 1 1 1 1 1 1 1 
1 1 1 1 1 1 1 1 1 
1 1 1 1 1 1 1 1 1 
1 1 1 1 1 1 1 1 1 
1 1 1 1 1 1 1 1 1 
1 1 1 1 1 1 1 1 1 
1 1 1 1 1 1 1 1 1 
1 1 1 1 1 1 1 1 1 
1 1 1 1 1 1 1 1 1 
1 1 1 1 1 1 1 1 1 
1 1 1 1 1 1 1 1 1 
1 1 1 1 1 1 1 1 1 
1 1 1 1 1 1 1 1 1 
1 1 1 1 1 1 1 1 1 
1 1 1 1 1 1 1 1 1 
1 1 1 1 1 1 1 1 1 
1 1 1 1 1 1 1 1 1 
1 1 1 1 1 1 1 1 1 
1 1 1 1 1 1 1 1 1 
1 1 1 1 1 1 1 1 1 
1 1 1 1 1 1 1 1 1 
1 1 1 1 1 1 1 1 1 
1 1 1 1 1 1 1 1 1 
1 1 1 1 1 1 1 1 1 
1 1 1 1 1 1 1 1 1 
1 1 1 1 1 1 1 1 1 
1 1 1 1 1 1 1 1 1 
1 1 1 1 1 1 1 1 1 
1 1 1 1 1 1 1 1 1 
1 1 1 1 1 1 1 1 1 
1 1 1 1 1 1 1 1 1 
1 1 1 1 1 1 1 1 1 
1 1 1 1 1 1 1 1 1 
1 1 1 1 1 1 1 1 1 
1 1 1 1 1 1 1 1 1 
1 1 1 1 1 1 1 1 1 
1 1 1 1 1 1 1 1 1 
1 1 1 1 1 1 1 1 1 
1 1 1 1 1 1 1 1 1 
1 1 1 1 1 1 1 1 1 
1 1 1 1 1 1 1 1 1 
1 1 1 1 1 1 1 1 1 
1 1 1 1 1 1 1 1 1 
1 1 1 1 1 1 1 1 1 
1 1 1 1 1 1 1 1 1 
1 1 1 1 1 1 1 1 1 
1 1 1 1 1 1 1 1 1 
1 1 1 1 1 1 1 1 1 
1 1 1 1 1 1 1 1 1 
1 1 1 1 1 1 1 1 1 
1 1 1 1 1 1 1 1 1 
1 1 1 1 1 1 1 1 1 
1 1 1 1 1 1 1 1 1 
1 1 1 1 1 1 1 1 1 
1 1 1 1 1 1 1 1 1 
1 1 1 1 1 1 1 1 1 
1 1 1 1 1 1 1 1 1 
1 1 1 1 1 1 1 1 1 
1 1 1 1 1 1 1 1 1 
1 1 1 1 1 1 1 1 1 
1 1 1 1 1 1 1 1 1 
1 1 1 1 1 1 1 1 1 
1 1 1 1 1 1 1 1 1 
1 1 1 1 1 1 1 1 1 
1 1 1 1 1 1 1 1 1 
1 1 1 1 1 1 1 1 1 
1 1 1 1 1 1 1 
i 3 646 int
0 0 0 0 0 0 0 0 0 
0 0 0 0 0 0 0 0 0 
0 0 0 0 0 0 0 0 0 
0 0 0 0 0 0 0 0 0 
0 0 0 0 0 0 0 0 0 
0 0 0 0 0 0 0 0 0 
0 0 0 0 0 0 0 0 0 
0 0 0 0 0 0 0 0 0 
0 0 0 0 0 0 0 0 0 
0 0 0 0 0 0 0 0 0 
0 0 0 0 0 0 0 0 0 
0 0 0 0 0 0 0 0 0 
0 0 0 0 0 0 0 0 0 
0 0 0 0 0 0 0 0 0 
0 0 0 0 0 0 0 0 0 
0 0 0 0 0 0 0 0 0 
0 0 0 0 0 0 0 0 0 
0 0 0 0 0 0 0 0 0 
0 0 0 0 0 0 0 0 0 
0 0 0 0 0 0 0 0 0 
0 0 0 0 0 0 0 0 0 
0 0 0 0 0 0 0 0 0 
0 0 0 0 0 0 0 0 0 
0 0 0 0 0 0 0 0 0 
0 0 0 0 0 0 0 0 0 
0 0 0 0 0 0 0 0 0 
0 0 0 0 0 0 0 0 0 
0 0 0 0 0 0 0 0 0 
0 0 0 0 0 0 0 0 0 
0 0 0 0 0 0 0 0 0 
0 0 0 0 0 0 0 0 0 
0 0 0 0 0 0 0 0 0 
0 0 0 0 0 0 0 0 0 
0 0 0 0 0 0 0 0 0 
0 0 0 0 0 0 0 0 0 
0 0 0 0 0 0 0 0 0 
0 0 0 0 0 0 0 0 0 
0 0 0 0 0 0 0 0 0 
0 0 0 0 0 0 0 0 0 
0 0 0 0 0 0 0 0 0 
0 0 0 0 0 0 0 0 0 
0 0 0 0 0 0 0 0 0 
0 0 0 0 0 0 0 0 0 
0 0 0 0 0 0 0 0 0 
0 0 0 0 0 0 0 0 0 
0 0 0 0 0 0 0 0 0 
0 0 0 0 0 0 0 0 0 
0 0 0 0 0 0 0 0 0 
0 0 0 0 0 0 0 0 0 
0 0 0 0 0 0 0 0 0 
0 0 0 0 0 0 0 0 0 
0 0 0 0 0 0 0 0 0 
0 0 0 0 0 0 0 0 0 
0 0 0 0 0 0 0 0 0 
0 0 0 0 0 0 0 0 0 
0 0 0 0 0 0 0 0 0 
0 0 0 0 0 0 0 0 0 
0 0 0 0 0 0 0 0 0 
0 0 0 0 0 0 0 0 0 
0 0 0 0 0 0 0 0 0 
0 0 0 0 0 0 0 0 0 
0 0 0 0 0 0 0 0 0 
0 0 0 0 0 0 0 0 0 
0 0 0 0 0 0 0 0 0 
0 0 0 0 0 0 0 0 0 
0 0 0 0 0 0 0 0 0 
0 0 0 0 0 0 0 0 0 
0 0 0 0 0 0 0 0 0 
0 0 0 0 0 0 0 0 0 
0 0 0 0 0 0 0 0 0 
0 0 0 0 0 0 0 0 0 
0 0 0 0 0 0 0 0 0 
0 0 0 0 0 0 0 0 0 
0 0 0 0 0 0 0 0 0 
0 0 0 0 0 0 0 0 0 
0 0 0 0 0 0 0 0 0 
0 0 0 0 0 0 0 0 0 
0 0 0 0 0 0 0 0 0 
0 0 0 0 0 0 0 0 0 
0 0 0 0 0 0 0 0 0 
0 0 0 0 0 0 0 0 0 
0 0 0 0 0 0 0 0 0 
0 0 0 0 0 0 0 0 0 
0 0 0 0 0 0 0 0 0 
0 0 0 0 0 0 0 0 0 
0 0 0 0 0 0 0 0 0 
0 0 0 0 0 0 0 0 0 
0 0 0 0 0 0 0 0 0 
0 0 0 0 0 0 0 0 0 
0 0 0 0 0 0 0 0 0 
0 0 0 0 0 0 0 0 0 
0 0 0 0 0 0 0 0 0 
0 0 0 0 0 0 0 0 0 
0 0 0 0 0 0 0 0 0 
0 0 0 0 0 0 0 0 0 
0 0 0 0 0 0 0 0 0 
0 0 0 0 0 0 0 0 0 
0 0 0 0 0 0 0 0 0 
0 0 0 0 0 0 0 0 0 
0 0 0 0 0 0 0 0 0 
0 0 0 0 0 0 0 0 0 
0 0 0 0 0 0 0 0 0 
0 0 0 0 0 0 0 0 0 
0 0 0 0 0 0 0 0 0 
0 0 0 0 0 0 0 0 0 
0 0 0 0 0 0 0 0 0 
0 0 0 0 0 0 0 0 0 
0 0 0 0 0 0 0 0 0 
0 0 0 0 0 0 0 0 0 
0 0 0 0 0 0 0 0 0 
0 0 0 0 0 0 0 0 0 
0 0 0 0 0 0 0 0 0 
0 0 0 0 0 0 0 0 0 
0 0 0 0 0 0 0 0 0 
0 0 0 0 0 0 0 0 0 
0 0 0 0 0 0 0 0 0 
0 0 0 0 0 0 0 0 0 
0 0 0 0 0 0 0 0 0 
0 0 0 0 0 0 0 0 0 
0 0 0 0 0 0 0 0 0 
0 0 0 0 0 0 0 0 0 
0 0 0 0 0 0 0 0 0 
0 0 0 0 0 0 0 0 0 
0 0 0 0 0 0 0 0 0 
0 0 0 0 0 0 0 0 0 
0 0 0 0 0 0 0 0 0 
0 0 0 0 0 0 0 0 0 
0 0 0 0 0 0 0 0 0 
0 0 0 0 0 0 0 0 0 
0 0 0 0 0 0 0 0 0 
0 0 0 0 0 0 0 0 0 
0 0 0 0 0 0 0 0 0 
0 0 0 0 0 0 0 0 0 
0 0 0 0 0 0 0 0 0 
0 0 0 0 0 0 0 0 0 
0 0 0 0 0 0 0 0 0 
0 0 0 0 0 0 0 0 0 
0 0 0 0 0 0 0 0 0 
0 0 0 0 0 0 0 0 0 
0 0 0 0 0 0 0 0 0 
0 0 0 0 0 0 0 0 0 
0 0 0 0 0 0 0 0 0 
0 0 0 0 0 0 0 0 0 
0 0 0 0 0 0 0 0 0 
0 0 0 0 0 0 0 0 0 
0 0 0 0 0 0 0 0 0 
0 0 0 0 0 0 0 0 0 
0 0 0 0 0 0 0 0 0 
0 0 0 0 0 0 0 0 0 
0 0 0 0 0 0 0 0 0 
0 0 0 0 0 0 0 0 0 
0 0 0 0 0 0 0 0 0 
0 0 0 0 0 0 0 0 0 
0 0 0 0 0 0 0 0 0 
0 0 0 0 0 0 0 0 0 
0 0 0 0 0 0 0 0 0 
0 0 0 0 0 0 0 0 0 
0 0 0 0 0 0 0 0 0 
0 0 0 0 0 0 0 0 0 
0 0 0 0 0 0 0 0 0 
0 0 0 0 0 0 0 0 0 
0 0 0 0 0 0 0 0 0 
0 0 0 0 0 0 0 0 0 
0 0 0 0 0 0 0 0 0 
0 0 0 0 0 0 0 0 0 
0 0 0 0 0 0 0 0 0 
0 0 0 0 0 0 0 0 0 
0 0 0 0 0 0 0 0 0 
0 0 0 0 0 0 0 0 0 
0 0 0 0 0 0 0 0 0 
0 0 0 0 0 0 0 0 0 
0 0 0 0 0 0 0 0 0 
0 0 0 0 0 0 0 0 0 
0 0 0 0 0 0 0 0 0 
0 0 0 0 0 0 0 0 0 
0 0 0 0 0 0 0 0 0 
0 0 0 0 0 0 0 0 0 
0 0 0 0 0 0 0 0 0 
0 0 0 0 0 0 0 0 0 
0 0 0 0 0 0 0 0 0 
0 0 0 0 0 0 0 0 0 
0 0 0 0 0 0 0 0 0 
0 0 0 0 0 0 0 0 0 
0 0 0 0 0 0 0 0 0 
0 0 0 0 0 0 0 0 0 
0 0 0 0 0 0 0 0 0 
0 0 0 0 0 0 0 0 0 
0 0 0 0 0 0 0 0 0 
0 0 0 0 0 0 0 0 0 
0 0 0 0 0 0 0 0 0 
0 0 0 0 0 0 0 0 0 
0 0 0 0 0 0 0 0 0 
0 0 0 0 0 0 0 0 0 
0 0 0 0 0 0 0 0 0 
0 0 0 0 0 0 0 0 0 
0 0 0 0 0 0 0 0 0 
0 0 0 0 0 0 0 0 0 
0 0 0 0 0 0 0 0 0 
0 0 0 0 0 0 0 0 0 
0 0 0 0 0 0 0 0 0 
0 0 0 0 0 0 0 0 0 
0 0 0 0 0 0 0 0 0 
0 0 0 0 0 0 0 0 0 
0 0 0 0 0 0 0 0 0 
0 0 0 0 0 0 0 0 0 
0 0 0 0 0 0 0 0 0 
0 0 0 0 0 0 0 0 0 
0 0 0 0 0 0 0 0 0 
0 0 0 0 0 0 0 0 0 
0 0 0 0 0 0 0 0 0 
0 0 0 0 0 0 0 0 0 
0 0 0 0 0 0 0 0 0 
0 0 0 0 0 0 0 0 0 
0 0 0 0 0 0 0 0 0 
0 0 0 0 0 0 0 0 0 
0 0 0 
v 3 646 double
-1.4389 -0.122754 -1.67155 -0.949322 -0.175533 -0.479017 -1.38458 0.0121135 -1.46452 
-1.31226 0.152563 -1.36009 -1.39956 0.0102656 -1.39059 -1.33504 -0.0723053 -1.37228 
-1.14656 0.0761887 -1.20366 -1.35171 0.195162 -1.25963 -1.34235 -0.114898 -1.28679 
-1.2104 -0.111715 -1.30511 -1.29371 0.154395 -1.14505 -1.12274 0.0154003 -1.08737 
-1.37864 0.0410424 -1.18986 -1.28265 -0.0239591 -0.984383 -1.34684 0.255768 -1.1128 
-1.14007 0.0619945 -0.957848 -1.26435 0.0221371 -1.02612 -1.29568 0.280331 -1.09276 
-1.18685 -0.0202596 -0.95891 -1.27086 -0.0159577 -0.925363 -1.25753 0.0630385 -0.905634 
-1.17123 0.0260053 -0.866736 -1.17479 0.0230187 -0.853334 -1.20375 0.00503665 -0.805312 
-1.21196 0.0390049 -0.763673 -1.08435 0.0642844 -0.749409 -1.116 0.019221 -0.693432 
-1.24643 -0.117866 -0.775948 -1.2302 0.00574051 -0.787968 -1.22067 0.0285474 -0.79338 
-1.0323 0.152826 -0.733221 -1.28551 0.102613 -0.888603 -1.34796 0.269572 -0.752258 
-1.22662 -0.116708 -0.71241 -1.10241 -0.0910185 -0.609698 -1.19979 -0.0555813 -0.639305 
-1.22068 -0.298572 -0.740247 -0.973525 -0.054984 -0.435744 -1.36559 -0.0590547 -1.10723 
-1.08092 -0.0613343 -0.518282 -1.07951 0.0100131 -0.481081 -1.20344 -0.0768672 -0.604621 
-1.37075 -0.249623 -0.700806 -1.19319 -0.0892842 -0.611935 -1.3098 0.0964065 -0.53088 
-0.911776 -0.0533079 -0.356855 -1.16089 -0.0525403 -0.492607 -1.19198 -0.114647 -0.508952 
-1.27845 0.170664 -0.597135 -1.13895 0.060602 -0.469965 -1.17689 0.0755341 -0.498393 
-1.1357 0.0517027 -0.475435 -0.915609 -0.0681148 -0.39019 -1.15143 -0.0986195 -0.488836 
-1.11602 0.0229093 -0.339613 -1.10267 0.0900686 -0.453138 -0.929426 -0.0284383 -0.399972 
-1.04027 0.0581671 -0.425333 -1.10838 -0.0303966 -0.468602 -1.19414 -0.00957512 -0.491776 
-1.18599 -0.298664 -0.587319 -1.08771 0.251148 -0.489524 -1.19348 0.21829 -0.517329 
-1.08912 0.0144498 -0.459473 -1.09346 -0.00488968 -0.459505 -1.002 0.0160659 -0.423554 
-1.0042 0.0106195 -0.422511 -1.06724 -0.090167 -0.456712 -0.951057 0.0419436 -0.385013 
-1.19839 0.239857 -0.748945 -1.1909 0.180883 -0.517755 -1.03686 -0.0451629 -0.430855 
-0.95888 -0.16737 -0.39866 -1.05627 -0.0885945 -0.454859 -1.26854 -0.144443 -0.542543 
-1.19393 0.176078 -0.554695 -0.920303 -0.031591 -0.379178 -1.01024 0.00334605 -0.42847 
-1.03455 0.0490236 -0.424377 -1.05984 -0.0405749 -0.4274 -1.12988 -0.0252497 -0.477352 
-1.26049 0.00623526 -0.512761 -0.760928 -0.11672 -0.305274 -0.811583 0.0208497 -0.341562 
-0.839825 0.0648736 -0.358936 -1.00474 0.00925112 -0.428031 -0.935452 0.0141721 -0.376051 
-0.955341 -0.0821224 -0.392678 -0.929941 0.00234909 -0.394674 -0.948017 -0.000885894 -0.401547 
-0.830352 -0.0221425 -0.347603 -1.0304 0.11169 -0.426851 -1.0047 0.101477 -0.414397 
-1.1025 0.00419009 -0.434805 -1.01678 -0.0978047 -0.421282 -0.967247 -0.0496822 -0.363407 
-1.03953 0.00993077 -0.458245 -0.862714 -0.00677929 -0.353196 -0.755389 -0.0648794 -0.271709 
-0.901077 0.0477712 -0.442779 -0.914367 0.0273807 -0.40087 -1.16178 -0.0507698 -0.5934 
-1.09506 -0.0318158 -0.423021 -1.05073 -0.0212949 -0.448367 -0.885942 -0.0143767 -0.380832 
-0.876047 -0.0396997 -0.368236 -0.754575 0.0705243 -0.313611 -0.920623 0.0146271 -0.384751 
-1.11075 -0.0752107 -0.481029 -1.03022 -0.0199704 -0.430862 -1.25562 0.139242 -0.477629 
-0.802302 0.0530587 -0.23296 -1.15101 0.23159 -0.531402 -0.571725 -0.0191168 -0.317583 
-0.927962 0.0622489 -0.365944 -0.888525 0.0331953 -0.327557 -1.02383 0.072469 -0.424286 
-0.943417 -0.0525751 -0.395743 -1.01426 -0.0222283 -0.43276 -0.996395 -0.0149038 -0.414905 
-1.19425 0.0482712 -0.479263 -1.1105 0.119111 -0.464112 -0.831998 -0.0824634 -0.0960757 
-0.971566 0.0514094 -0.390593 -1.01506 -0.0046558 -0.394503 -0.994434 -0.0664707 -0.448757 
-0.971314 -0.153783 -0.391261 -1.02025 -0.17647 -0.409709 -0.924467 -0.0637531 -0.397193 
-0.864731 -0.0303893 -0.372042 -0.980994 -0.00639776 -0.418368 -1.05519 -0.0959873 -0.450874 
-0.936683 0.00154475 -0.397203 -1.2008 0.220684 -0.5412 -0.871186 0.139693 -0.386851 
-1.10397 -0.0967128 -0.72477 -0.957586 0.011799 -0.414838 -1.05161 -0.0724014 -0.438879 
-1.02545 0.259567 -0.539112 -0.961692 0.19798 -0.451073 -0.993072 0.268264 -0.487586 
-0.968532 0.180661 -0.458534 -0.96728 -0.087245 -0.395843 -0.951765 0.174454 -0.538322 
-0.959305 -0.0771657 -0.401238 -0.950919 -0.0365205 -0.406764 -1.02496 0.0250388 -0.626593 
-1.04969 -0.134877 -0.474631 -0.705116 -0.0859456 -0.282692 -0.821137 0.0247305 -0.35539 
-0.759893 0.0252096 -0.31608 -0.894825 -0.0363191 -0.373702 -0.711125 0.131436 -0.270625 
-0.825731 0.0553931 -0.320062 -0.946737 0.0559421 -0.374885 -1.00153 -0.0616559 -0.405676 
-0.984278 0.177783 -0.567527 -0.965531 -0.000775246 -0.403868 -0.83584 0.00302256 -0.359915 
-0.9295 0.0381644 -0.391431 -1.08769 0.00294689 -0.202878 -0.659424 0.0492181 -0.254892 
-1.06516 -0.137032 -0.332259 -1.03708 -0.129924 -0.44731 -0.811319 -0.0819122 -0.347597 
-0.693832 0.23885 -0.260454 -0.580338 -0.0887699 -0.476921 -0.872001 -0.093485 -0.0719779 
-0.948491 -0.0193268 -0.403439 -0.769796 -0.103925 -0.496902 -0.692639 -0.0231293 -0.297241 
-0.462962 0.0505029 -0.202051 -0.75961 0.0229085 -0.310835 -0.68406 0.0340896 -0.267029 
-1.04001 -0.207933 -0.374545 -0.833459 -0.146868 -0.39833 -0.814662 -0.110958 -0.394927 
-0.859367 0.0392936 -0.491863 -0.873827 0.0607447 -0.365467 -0.780944 0.0279819 -0.320865 
-0.708937 -0.074366 -0.303145 -0.681005 -0.028626 -0.290706 -0.797318 -0.00662831 -0.331482 
-0.847284 -0.0240303 -0.364783 -0.818398 0.105845 -0.345298 -0.84023 -0.133045 -0.373773 
-0.942255 -0.0160329 -0.208677 -0.865656 -0.0669166 -0.350409 -0.824814 -0.0511759 -0.347031 
-0.706669 -0.0385741 -0.318147 -0.741606 0.0606695 -0.343299 -0.720102 0.062752 -0.261861 
-0.779249 0.00347992 -0.327319 -0.842009 -0.0347602 -0.336927 -1.14068 0.255327 -0.209755 
-1.06426 0.289287 -0.496562 -0.826132 -0.0396932 -0.339351 -0.736405 -0.0785893 -0.277922 
-0.782295 -0.00862759 -0.326824 -0.791961 -0.0326694 -0.330933 -0.78809 -0.0686467 -0.324162 
-0.783571 -0.0396491 -0.33563 -0.729325 -0.0164941 -0.252593 -0.890469 -0.0716805 -0.381405 
-0.827944 -0.165086 -0.400551 -0.802567 -0.0778633 -0.602837 -0.874437 -0.162446 -0.323576 
-0.703593 -0.0285376 -0.298611 -0.722653 -0.0485054 -0.2859 -1.15845 -0.0340336 -0.518768 
-0.740977 0.106783 -0.557214 -0.795118 0.0140578 -0.344191 -0.75031 0.0346419 -0.310349 
-0.621003 0.0280745 -0.256275 -0.720057 -0.0630222 -0.28239 -0.778263 -0.000980351 -0.300453 
-0.702291 0.0469462 -0.287111 -0.694885 0.265088 -0.305453 -0.723823 0.0299627 -0.301728 
-0.759192 -0.0170063 -0.312579 -0.64225 0.0217439 -0.27596 -0.50451 0.0731635 -0.205819 
-0.71819 0.00364784 -0.294203 -0.770455 0.0122982 -0.315 -1.00245 0.0440145 -0.392778 
-0.663781 0.512311 -0.542801 -0.997471 -0.0883814 -0.335571 -0.796036 -0.0895198 -0.317897 
-0.779816 -0.100985 -0.322906 -0.608973 0.00796733 -0.253096 -0.778483 -0.132387 -0.386179 
-0.519445 0.0284489 -0.216026 -0.839997 0.0615441 -0.496106 -0.887813 0.052758 -0.373302 
-0.802499 0.236725 -0.317486 -0.797087 -0.0750735 -0.332214 -1.4231 -0.13074 -0.500402 
-0.846822 -0.145799 -0.398611 -1.02611 0.170517 -0.521435 -0.634091 0.084183 -0.407836 
-0.809325 0.17055 -0.298282 -0.793561 -0.0441922 -0.332293 -0.741093 -0.00689161 -0.292993 
-0.722566 0.0127688 -0.299365 -0.740359 0.0247635 -0.308788 -0.652618 -0.0766614 -0.258675 
-0.680511 -0.109011 -0.373507 -0.660788 -0.0754718 -0.272682 -0.512508 0.00600446 -0.219583 
-0.828699 -0.200405 -0.417721 -0.882695 0.066339 -0.429319 -0.629988 -0.0472683 -0.273668 
-0.966221 0.255279 -0.556345 -0.995843 0.121717 -0.605754 -0.922524 0.150364 -0.601226 
-0.854056 0.0814452 -0.284071 -0.504335 0.11764 -0.200528 -1.05566 0.36776 -0.390041 
-0.909915 0.115792 -0.381982 -1.02577 0.361126 -0.339864 -0.822435 0.0197239 -0.349314 
-0.950365 -0.230957 -0.51022 -0.622191 -0.0297837 -0.258625 -0.627894 -0.152505 -0.308053 
-0.632047 -0.018509 -0.268941 -0.605736 -0.0881789 -0.242366 -0.667689 -0.092631 -0.278873 
-0.68384 -0.00233078 -0.305617 -0.69388 0.0549386 -0.2929 -0.727118 0.0432417 -0.232035 
-0.77656 -0.0179226 -0.377058 -0.534711 0.129924 -0.210893 -0.939632 0.16724 -0.154422 
-0.567021 0.0225507 -0.244553 -0.771923 0.0441559 -0.327689 -0.762071 0.0881894 -0.31834 
-0.684936 0.0144508 -0.271963 -0.665442 0.0252163 -0.259019 -1.02484 -0.103245 -0.417335 
-0.705957 -0.205602 -0.250316 -0.660378 -0.0173427 -0.277641 -0.660352 -0.032128 -0.280268 
-1.01647 0.0237202 -0.393255 -0.660333 0.0110367 -0.277951 -0.639247 -0.000678972 -0.273406 
-0.647829 0.00899678 -0.274788 -1.02161 0.166315 -0.269336 -0.600417 -0.00699183 -0.257248 
-0.622351 -0.00746587 -0.256829 -0.632264 0.00182714 -0.250992 -0.89499 0.292026 -0.384946 
-0.575234 0.0297457 -0.234113 -0.656929 0.0134898 -0.284248 -0.602983 0.0343655 -0.246147 
-0.708428 0.0935284 -0.276479 -0.966263 0.268579 -0.341403 -0.646077 -0.0324848 -0.274395 
-0.805759 -0.147916 -0.398962 -0.639604 0.0169856 -0.200362 -0.842467 -0.0231154 -0.317126 
-0.664358 -0.0422434 -0.278056 -0.544184 -0.0646866 -0.226029 -0.55498 -0.0336918 -0.233295 
-0.629458 -0.0237115 -0.0317061 -0.599948 -0.0587951 -0.252396 -0.622435 -0.0343252 -0.288557 
-0.614778 0.0986869 -0.291096 -0.693954 -0.0983088 -0.300459 -0.982782 0.130554 -0.431611 
-0.682312 0.269763 -0.360492 -0.912935 -0.160092 -0.2585 -0.741675 -0.0805626 -0.274382 
-0.473976 -0.0210066 -0.195124 -0.517623 -0.10502 -0.211065 -0.628874 -0.0715593 -0.262258 
-0.547378 -0.112947 -0.188224 -0.578352 -0.0477212 -0.264347 -0.858586 -0.0247753 -0.936854 
-0.582077 -0.0314892 -0.245988 -0.664996 0.110689 -0.195653 -0.541039 -0.00426101 -0.308624 
-0.641555 -0.114913 -0.277042 -0.668978 0.0634134 -0.273715 -0.72484 -0.0482407 -0.311425 
-0.871613 -0.00603733 -0.245772 -0.727078 -0.147193 -0.612649 -0.656161 0.190489 -0.243279 
-0.610837 -0.00652563 -0.259985 -0.926775 -0.134147 -0.654036 -0.489192 -0.0816505 -0.200473 
-0.676132 -0.0386798 0.024381 -0.597378 0.0165012 -0.253697 -0.663901 -0.0403416 -0.64688 
-0.44938 -0.0204374 -0.152432 -0.786399 -0.0787107 -0.387548 -0.609899 -0.0266031 -0.147252 
-0.874535 -0.0669522 -0.0149315 -0.572417 -0.134284 -0.21661 -0.689098 0.237336 -0.259081 
-0.541509 -0.0897148 -0.236679 -0.649237 -0.0377862 -0.291704 -0.667299 -0.0291436 -0.285054 
-0.539458 0.103666 -0.199749 -0.619248 0.0569658 -0.27329 -0.842462 -0.0146975 -0.206404 
-0.557484 -0.0771345 -0.244765 -0.793553 -0.243616 -0.148072 -0.718243 -0.157947 -0.627378 
-0.712079 0.0435898 -0.30203 -0.678742 0.112521 -0.286243 -0.737615 0.161763 -0.448061 
-0.587807 0.0335802 -0.242645 -0.848175 -0.0966529 -0.373943 -0.698535 -0.0291906 -0.299591 
-0.688503 0.0168662 -0.279899 -0.64097 -0.0931 -0.250041 -0.720679 0.0603333 -0.309762 
-0.552658 -0.0766708 -0.289309 -0.785715 0.083264 -0.706806 -0.499485 0.0145322 -0.210039 
-0.796952 -0.156555 -0.381166 -0.426129 0.0507505 -0.179941 -0.626712 -0.0329078 -0.266361 
-0.676734 0.0939233 -0.285979 -0.647017 -0.0865342 -0.281832 -0.924505 -0.0240308 -0.795399 
-0.72013 -0.0424041 -0.290175 -0.631255 0.0788161 -0.273887 -0.76477 0.0203683 -0.401224 
-0.642632 0.322916 -0.210658 -0.925457 0.000283645 -0.562553 -0.915271 0.204778 -0.410324 
-0.780912 0.334578 -0.304079 -0.435971 -0.0568215 -0.27948 -0.517256 -0.100657 -0.0874912 
-0.843633 -0.223266 -0.431987 -0.550142 -0.0942416 -0.207471 -0.549018 -0.122434 -0.167774 
-0.546927 -0.122305 -0.228565 -0.94619 -0.131081 -0.639483 -0.533126 -0.0275919 -0.447002 
-0.664431 -0.21715 -0.266537 -0.682979 -0.0175172 -0.616074 -0.641535 -0.0261089 -0.226042 
-0.618608 0.181143 -0.275668 -0.49314 -0.36852 -0.508891 -0.805838 0.0231037 -0.581803 
-0.789581 -0.0730494 -0.88183 -0.50524 0.139251 -0.220091 -0.692628 0.0521041 -0.380765 
-0.664024 0.132188 -0.365936 -0.550441 0.188426 -0.175605 -0.442569 0.0820336 -0.190878 
-0.400381 0.0227857 -0.364198 -0.385919 0.132326 -0.47569 -0.629889 0.1603 -0.415202 