# vtk DataFile Version 4.0
Generated by LIGGGHTS
ASCII
DATASET POLYDATA
POINTS 837 float
-0.200986 0.00388401 -0.190716 -0.200933 -0.0327731 -0.185508 -0.204686 0.0329973 -0.188186 
-0.201207 0.00783196 -0.189596 -0.211516 0.00727084 -0.188759 -0.45393 -0.00785568 -0.397502 
-0.480113 0.011354 -0.398861 -0.478607 -0.0065546 -0.395704 -0.472673 0.00591228 -0.393621 
-0.484214 0.0228665 -0.396414 -0.483679 -0.00735346 -0.392087 -0.478784 0.0278391 -0.390574 
-0.45744 0.00523222 -0.386852 -0.462857 0.00928095 -0.388505 -0.477526 -0.0095171 -0.383147 
-0.475471 -0.00509302 -0.384258 -0.438214 0.00193818 -0.385443 -0.464351 0.00698486 -0.383532 
-0.472965 0.00815827 -0.380671 -0.450016 0.00968798 -0.380252 -0.434922 0.0109789 -0.369984 
-0.456382 -0.010812 -0.36685 -0.454666 -0.0135754 -0.365173 -0.454769 0.00533815 -0.363148 
-0.442051 0.00695447 -0.362402 -0.437555 0.00639564 -0.361574 -0.453836 0.019103 -0.361232 
-0.439503 -0.0180271 -0.3596 -0.456659 0.00561245 -0.359765 -0.445616 -0.0171139 -0.354563 
-0.440089 -0.0155209 -0.354261 -0.435882 -0.0105351 -0.355234 -0.444702 0.00126949 -0.354729 
-0.436189 0.00245808 -0.35705 -0.439595 -0.0188953 -0.348975 -0.43562 -0.0114834 -0.34712 
-0.427796 -0.0279496 -0.342996 -0.437432 -0.00447478 -0.341137 -0.421789 -0.0150975 -0.338839 
-0.412498 -0.0160926 -0.336808 -0.42963 -0.00468197 -0.33769 -0.429772 -0.0116957 -0.33338 
-0.433195 -0.00952989 -0.333396 -0.428944 0.0140366 -0.333328 -0.438117 -0.0167556 -0.33152 
-0.440553 -0.00875044 -0.331503 -0.428448 -0.00891377 -0.329758 -0.418706 -0.00933101 -0.331731 
-0.433687 -0.0381527 -0.325252 -0.424188 -0.0117554 -0.325439 -0.415682 0.0165276 -0.326108 
-0.417309 -0.0186295 -0.323179 -0.423865 0.00129244 -0.324355 -0.415224 0.00184132 -0.323779 
-0.412024 0.00690986 -0.323188 -0.418368 0.023788 -0.324197 -0.424383 -0.00808767 -0.321176 
-0.41925 -0.00552529 -0.320903 -0.405803 0.0130963 -0.318955 -0.407223 0.0158084 -0.318901 
-0.416102 0.0358347 -0.321284 -0.417802 -0.0161291 -0.315527 -0.415617 -0.00917413 -0.315211 
-0.405475 0.00841827 -0.315677 -0.408106 0.00046862 -0.312736 -0.413901 0.00463199 -0.311085 
-0.411098 -0.00453261 -0.308503 -0.40877 0.00672883 -0.30893 -0.418461 0.0121587 -0.308797 
-0.40384 0.0145324 -0.310647 -0.412345 -0.0103898 -0.304794 -0.405505 0.00136283 -0.301036 
-0.387433 0.00374209 -0.302881 -0.392743 -0.0179872 -0.298203 -0.393895 -0.00792088 -0.299276 
-0.392485 -0.00429593 -0.297028 -0.39235 0.000892875 -0.299192 -0.38835 0.00927174 -0.298031 
-0.378536 0.0097802 -0.297567 -0.394683 0.0109875 -0.298728 -0.398573 -0.0167758 -0.29537 
-0.3919 -0.0124331 -0.295975 -0.387476 -0.011064 -0.29459 -0.384201 0.00783659 -0.294573 
-0.398474 -0.0360224 -0.289988 -0.392202 -0.0267437 -0.290468 -0.389565 -0.0205502 -0.289818 
-0.390328 -0.00494884 -0.289482 -0.411443 0.000514711 -0.290758 -0.399298 0.00297973 -0.289811 
-0.383118 0.00142635 -0.290592 -0.376777 0.000941792 -0.29217 -0.387018 0.00535823 -0.29233 
-0.397683 0.0124596 -0.292221 -0.396227 -0.0120755 -0.28834 -0.392243 -0.0105025 -0.289288 
-0.385713 -0.0069636 -0.288127 -0.3767 -0.000699885 -0.288555 -0.394705 0.00578157 -0.287672 
-0.381813 0.00521185 -0.288588 -0.393181 0.0176099 -0.28637 -0.382971 -0.00381704 -0.283393 
-0.380558 0.00150411 -0.284793 -0.373006 0.00384322 -0.283573 -0.384478 0.00840406 -0.283605 
-0.378819 0.00750255 -0.282777 -0.380264 0.0105209 -0.284641 -0.388465 -0.00715629 -0.281106 
-0.373659 -0.000537323 -0.280741 -0.387595 0.000163962 -0.279182 -0.379819 0.000547637 -0.280727 
-0.354347 0.00782885 -0.279659 -0.371083 0.0113813 -0.279619 -0.383637 0.0144294 -0.281157 
-0.37734 -0.0115793 -0.274992 -0.373097 0.00156664 -0.278154 -0.370327 0.00507609 -0.276878 
-0.396403 0.00839489 -0.276881 -0.375323 0.0084157 -0.275918 -0.383056 0.0185477 -0.277003 
-0.385488 -0.032593 -0.271545 -0.364153 -0.007899 -0.27169 -0.369686 0.00631907 -0.271493 
-0.377885 -0.0237723 -0.270037 -0.369558 -0.0190427 -0.270689 -0.369876 -0.0100421 -0.26834 
-0.366767 -0.0048785 -0.268749 -0.361263 0.00318198 -0.269332 -0.356518 0.00083198 -0.269183 
-0.376158 0.0098766 -0.271179 -0.362639 0.00983259 -0.271249 -0.373621 0.0188728 -0.268528 
-0.375376 0.0234079 -0.269309 -0.355192 -0.0197007 -0.2642 -0.377429 -0.00708533 -0.266395 
-0.366254 -0.00812749 -0.264421 -0.36406 -0.00480676 -0.265349 -0.359898 -0.00471577 -0.266098 
-0.363314 0.00428326 -0.265019 -0.361168 -0.0153897 -0.262112 -0.363901 -0.0114907 -0.264101 
-0.361944 -0.00689059 -0.262378 -0.358333 0.000836334 -0.261455 -0.364318 0.00864867 -0.263036 
-0.364498 0.0192829 -0.263755 -0.357632 -0.0111287 -0.259793 -0.352397 -0.00615796 -0.25816 
-0.354218 -0.00254677 -0.259845 -0.354687 0.00306902 -0.258092 -0.353457 0.0159152 -0.257438 
-0.347442 -0.00833991 -0.254579 -0.346997 -0.00500889 -0.254342 -0.347595 0.000799824 -0.254658 
-0.348323 0.00455091 -0.255988 -0.34899 0.00857565 -0.256109 -0.349013 0.0129724 -0.254728 
-0.355347 0.0263422 -0.255397 -0.362813 0.0414377 -0.253931 -0.345236 -0.0111539 -0.251978 
-0.344151 -0.00314262 -0.251607 -0.34181 0.0104329 -0.251632 -0.336504 -0.014255 -0.24739 
-0.332691 0.00353382 -0.246644 -0.336866 0.0141364 -0.24877 -0.338484 0.018245 -0.248632 
-0.332889 -0.0149649 -0.245486 -0.325485 -0.00997211 -0.242765 -0.327386 -0.00520544 -0.242848 
-0.328041 -0.0012364 -0.244433 -0.326961 0.00278196 -0.24284 -0.32887 0.00667819 -0.244661 
-0.324748 0.0102954 -0.242456 -0.332297 0.0127888 -0.244802 -0.32795 0.0123087 -0.24379 
-0.326218 0.0148056 -0.242573 -0.340266 0.0368845 -0.242953 -0.33702 -0.0311157 -0.242175 
-0.321643 -0.0197671 -0.239652 -0.324634 -0.015565 -0.241641 -0.315205 -0.00387821 -0.238916 
-0.321225 0.00672588 -0.241168 -0.316648 0.00651605 -0.239202 -0.320793 0.0107074 -0.239648 
-0.327081 0.0211402 -0.240659 -0.323912 0.0251604 -0.23952 -0.338219 -0.0431535 -0.238129 
-0.313889 -0.0097392 -0.237917 -0.310683 -0.00891111 -0.235512 -0.312758 -0.00569727 -0.237819 
-0.308492 -0.00298541 -0.236115 -0.31284 0.00188353 -0.23794 -0.310149 0.00375685 -0.235605 
-0.315167 0.00976094 -0.237199 -0.311208 0.00931137 -0.235983 -0.314668 0.0138717 -0.23731 
-0.337321 0.0194779 -0.239026 -0.322479 0.0210729 -0.238613 -0.317746 0.0220045 -0.236459 
-0.319281 0.0272353 -0.235878 -0.320954 0.0316171 -0.236185 -0.323225 -0.0363792 -0.234221 
-0.30802 -0.0298093 -0.231592 -0.303909 -0.00920941 -0.232763 -0.305984 -0.00655159 -0.234931 
-0.304233 -0.000304949 -0.234412 -0.306457 0.00530047 -0.235036 -0.310955 0.015601 -0.23487 
-0.301964 0.0142056 -0.232489 -0.310596 0.0235643 -0.23427 -0.331731 0.0439541 -0.232857 
-0.311474 -0.035119 -0.231174 -0.297241 -0.0175356 -0.230014 -0.295113 -0.0137552 -0.228567 
-0.290637 0.00626928 -0.228303 -0.301284 0.0106844 -0.230677 -0.323766 0.0153468 -0.23016 
-0.309985 0.0351423 -0.2305 -0.289911 0.0116398 -0.227652 -0.296732 0.0238717 -0.227333 
-0.286695 0.0217963 -0.22472 -0.297007 -0.0407965 -0.221814 -0.277089 -0.0152252 -0.221725 
-0.277576 -0.0122204 -0.222443 -0.275052 -0.0111186 -0.221017 -0.279102 -0.00731611 -0.222484 
-0.276227 -0.00179557 -0.222539 -0.279676 0.0212636 -0.221841 -0.280753 -0.0307627 -0.220171 
-0.267883 -0.00968245 -0.218667 -0.273817 -0.00144598 -0.220755 -0.266141 0.000744574 -0.218301 
-0.27193 0.00945019 -0.22029 -0.269489 0.00796512 -0.219164 -0.27563 0.0209213 -0.220242 
-0.295699 -0.0555087 -0.214588 -0.262906 -0.024492 -0.214334 -0.261557 -0.0216575 -0.214242 
-0.262768 -0.0076783 -0.215561 -0.25807 -0.00685252 -0.21469 -0.259645 0.0075941 -0.214139 
-0.262594 0.0123328 -0.215095 -0.261725 0.0175399 -0.213927 -0.265618 0.0239542 -0.215644 
-0.268457 0.0275865 -0.215866 -0.256521 -0.0197315 -0.212625 -0.254253 -0.00746506 -0.211969 
-0.249298 -0.000357999 -0.211201 -0.252301 0.00265539 -0.212353 -0.256752 0.00342434 -0.213113 
-0.260124 0.0110781 -0.210272 -0.257725 0.0202929 -0.211833 -0.254021 0.021703 -0.211137 
-0.261332 0.0250316 -0.213638 -0.254966 0.0255642 -0.210846 -0.263832 0.0295168 -0.212328 
-0.27069 0.0375951 -0.212795 -0.268948 0.0423168 -0.211191 -0.293127 0.0554542 -0.213613 
-0.254809 -0.0224774 -0.210231 -0.246076 -0.0238298 -0.207467 -0.244662 -0.0204275 -0.207411 
-0.249187 -0.0149123 -0.210108 -0.243766 -0.0169009 -0.207581 -0.24984 -0.0104553 -0.209941 
-0.245638 -0.0129975 -0.207826 -0.245155 -0.00802938 -0.208091 -0.240542 -0.00789495 -0.207199 
-0.239206 -0.00289024 -0.206932 -0.246653 0.000821665 -0.209984 -0.244244 3.92309e-05 -0.207738 
-0.245397 0.00486584 -0.209344 -0.242613 0.00514422 -0.208163 -0.239778 0.00465656 -0.206976 
-0.247596 0.00751479 -0.210162 -0.243804 0.00797584 -0.208551 -0.245227 0.0126115 -0.208818 
-0.242477 0.0120254 -0.207737 -0.248429 0.0184935 -0.209311 -0.242328 0.0178341 -0.206844 
-0.251647 0.0229107 -0.209693 -0.247839 0.0238374 -0.207182 -0.263296 0.0385834 -0.210539 
-0.244044 -0.0268757 -0.206049 -0.238262 -0.00984044 -0.206017 -0.232264 0.00248058 -0.203934 
-0.240718 0.00876968 -0.206122 -0.238259 0.0124917 -0.205901 -0.23869 0.0162027 -0.204483 
-0.230055 -0.0133343 -0.201192 -0.227874 -0.00997765 -0.201646 -0.230365 -0.00574623 -0.202985 
-0.230295 -0.000375416 -0.202035 -0.244731 0.00217857 -0.203585 -0.231987 0.023519 -0.200651 
-0.234538 0.0281046 -0.200569 -0.248971 0.0436323 -0.202741 -0.227479 -0.0368715 -0.196453 
-0.226997 -0.0283558 -0.198467 -0.225763 -0.023669 -0.197859 -0.220643 -0.0244831 -0.196619 
-0.222207 -0.02062 -0.198118 -0.223919 -0.0163308 -0.198317 -0.217396 -0.0124377 -0.196994 
-0.22393 -0.00948591 -0.19892 -0.224427 0.0078391 -0.199358 -0.218311 0.00745293 -0.196821 
-0.229645 0.0358604 -0.197749 -0.229346 -0.0304473 -0.193783 -0.216889 -0.0286124 -0.193089 
-0.217887 -0.0238076 -0.195642 -0.215565 -0.0201885 -0.194361 -0.225364 -0.0139747 -0.194172 
-0.214778 0.00159097 -0.195426 -0.212613 0.00553086 -0.195538 -0.209187 0.00363243 -0.193038 
-0.205141 0.00746644 -0.19241 -0.215497 0.0135328 -0.196104 -0.211183 0.0160198 -0.193946 
[...]
POINT_DATA 837
FIELD FieldData 7
id 1 837 int
556 520 615 548 445 185 278 218 206 
151 205 223 259 131 275 211 262 129 
210 152 292 260 314 299 243 155 300 
282 271 119 302 252 342 239 214 293 
149 219 295 220 279 286 189 208 320 
348 115 180 337 355 309 301 190 236 
289 325 193 256 184 288 272 221 212 
318 207 266 315 323 319 311 413 324 
172 249 106 217 251 254 197 160 365 
317 313 250 297 338 312 229 396 179 
284 169 341 242 403 350 255 107 308 
310 264 280 333 235 370 261 352 379 
225 307 269 213 345 380 253 346 168 
267 240 332 381 425 306 405 321 373 
305 344 283 294 389 356 404 359 406 
391 378 247 322 237 303 316 330 383 
504 336 285 241 354 401 376 226 331 
334 411 384 463 339 329 291 173 328 
296 438 392 335 248 393 441 395 402 
414 367 326 298 439 456 386 371 388 
377 426 468 419 362 398 358 432 273 
415 374 394 481 424 429 457 369 407 
496 448 535 437 409 349 400 447 421 
410 423 510 360 452 443 276 382 584 
490 442 446 399 523 195 385 462 470 
428 475 467 387 465 427 473 513 540 
618 464 460 343 472 458 471 357 502 
449 430 434 451 478 469 550 431 390 
459 397 483 494 436 477 484 418 363 
351 476 408 422 433 435 412 500 554 
466 375 340 353 416 440 453 480 417 
525 533 461 568 479 364 368 450 509 
455 492 505 599 561 537 573 526 501 
518 508 515 543 522 582 482 558 507 
541 560 546 361 420 611 495 538 444 
529 530 566 583 596 603 493 498 366 
645 454 572 578 499 630 564 619 514 
801 551 767 489 553 497 512 545 531 
503 488 528 591 524 574 549 856 581 
547 487 511 559 576 563 542 594 589 
506 491 588 474 517 627 565 527 604 
656 532 562 557 521 609 534 620 586 
516 676 614 519 486 577 485 555 610 
661 552 658 606 598 719 628 602 682 
711 650 587 571 580 654 698 633 655 
635 624 675 595 674 570 621 625 644 
575 629 590 692 647 608 677 567 613 
742 616 612 617 632 680 607 631 585 
683 671 673 536 600 734 702 736 669 
662 666 643 634 707 640 636 544 641 
685 637 592 712 699 715 721 691 668 
539 725 681 597 653 648 657 775 700 
716 569 652 697 593 688 263 622 639 
694 638 744 660 649 665 642 720 651 
626 690 601 646 739 678 713 670 684 
735 717 679 701 704 703 623 667 727 
714 664 730 747 696 718 755 741 710 
724 672 686 663 709 753 708 784 732 
695 579 776 794 687 756 771 726 733 
737 722 750 757 748 790 723 738 782 
795 729 706 803 853 754 728 774 805 
762 759 752 751 693 705 766 789 788 
827 792 780 785 787 740 769 823 839 
746 760 689 763 743 773 783 781 765 
764 797 808 778 761 812 813 772 791 
768 811 777 826 845 822 828 809 840 
796 846 1044 1046 830 817 799 1043 731 
779 798 835 866 852 888 810 800 793 
758 821 851 806 836 770 879 834 859 
831 848 841 874 807 829 847 872 815 
749 804 816 844 838 786 819 824 843 
882 880 889 870 842 892 868 861 887 
863 871 855 825 820 849 862 900 878 
875 659 833 814 858 894 818 881 905 
864 886 877 883 873 893 884 898 865 
902 867 896 891 876 860 906 837 854 
832 890 885 869 802 897 857 850 907 
904 903 901 899 895 911 914 917 745 
913 919 915 916 920 909 910 918 908 
924 912 933 605 930 923 927 931 928 
925 922 926 929 932 921 945 944 935 
943 946 936 940 938 941 939 937 942 
934 957 953 948 947 954 951 955 956 
958 952 949 950 961 965 966 968 963 
962 969 971 967 970 959 960 964 978 
976 972 983 975 981 980 977 974 982 
979 973 992 986 993 987 989 991 995 
988 994 1004 1009 984 990 996 985 1007 
1001 1003 1006 1008 998 1005 997 1020 1002 
999 1019 1013 1022 1014 1021 1000 1017 1011 
1016 1018 1015 1012 1010 1031 1026 1027 1029 
1025 1028 1034 1032 1024 1033 1023 1035 1030 
1040 1038 1042 1045 1037 1047 1036 1041 1039 

type 1 837 int
1 1 1 1 1 1 1 1 1 
1 1 1 1 1 1 1 1 1 
1 1 1 1 1 1 1 1 1 
1 1 1 1 1 1 1 1 1 
1 1 1 1 1 1 1 1 1 
1 1 1 1 1 1 1 1 1 
1 1 1 1 1 1 1 1 1 
1 1 1 1 1 1 1 1 1 
1 1 1 1 1 1 1 1 1 
1 1 1 1 1 1 1 1 1 
1 1 1 1 1 1 1 1 1 
1 1 1 1 1 1 1 1 1 
1 1 1 1 1 1 1 1 1 
1 1 1 1 1 1 1 1 1 
1 1 1 1 1 1 1 1 1 
1 1 1 1 1 1 1 1 1 
1 1 1 1 1 1 1 1 1 
1 1 1 1 1 1 1 1 1 
1 1 1 1 1 1 1 1 1 
1 1 1 1 1 1 1 1 1 
1 1 1 1 1 1 1 1 1 
1 1 1 1 1 1 1 1 1 
1 1 1 1 1 1 1 1 1 
1 1 1 1 1 1 1 1 1 
1 1 1 1 1 1 1 1 1 
1 1 1 1 1 1 1 1 1 
1 1 1 1 1 1 1 1 1 
1 1 1 1 1 1 1 1 1 
1 1 1 1 1 1 1 1 1 
1 1 1 1 1 1 1 1 1 
1 1 1 1 1 1 1 1 1 
1 1 1 1 1 1 1 1 1 
1 1 1 1 1 1 1 1 1 
1 1 1 1 1 1 1 1 1 
1 1 1 1 1 1 1 1 1 
1 1 1 1 1 1 1 1 1 
1 1 1 1 1 1 1 1 1 
1 1 1 1 1 1 1 1 1 
1 1 1 1 1 1 1 1 1 
1 1 1 1 1 1 1 1 1 
1 1 1 1 1 1 1 1 1 
1 1 1 1 1 1 1 1 1 
1 1 1 1 1 1 1 1 1 
1 1 1 1 1 1 1 1 1 
1 1 1 1 1 1 1 1 1 
1 1 1 1 1 1 1 1 1 
1 1 1 1 1 1 1 1 1 
1 1 1 1 1 1 1 1 1 
1 1 1 1 1 1 1 1 1 
1 1 1 1 1 1 1 1 1 
1 1 1 1 1 1 1 1 1 
1 1 1 1 1 1 1 1 1 
1 1 1 1 1 1 1 1 1 
1 1 1 1 1 1 1 1 1 
1 1 1 1 1 1 1 1 1 
1 1 1 1 1 1 1 1 1 
1 1 1 1 1 1 1 1 1 
1 1 1 1 1 1 1 1 1 
1 1 1 1 1 1 1 1 1 
1 1 1 1 1 1 1 1 1 
1 1 1 1 1 1 1 1 1 
1 1 1 1 1 1 1 1 1 
1 1 1 1 1 1 1 1 1 
1 1 1 1 1 1 1 1 1 
1 1 1 1 1 1 1 1 1 
1 1 1 1 1 1 1 1 1 
1 1 1 1 1 1 1 1 1 
1 1 1 1 1 1 1 1 1 
1 1 1 1 1 1 1 1 1 
1 1 1 1 1 1 1 1 1 
1 1 1 1 1 1 1 1 1 
1 1 1 1 1 1 1 1 1 
1 1 1 1 1 1 1 1 1 
1 1 1 1 1 1 1 1 1 
1 1 1 1 1 1 1 1 1 
1 1 1 1 1 1 1 1 1 
1 1 1 1 1 1 1 1 1 
1 1 1 1 1 1 1 1 1 
1 1 1 1 1 1 1 1 1 
1 1 1 1 1 1 1 1 1 
1 1 1 1 1 1 1 1 1 
1 1 1 1 1 1 1 1 1 
1 1 1 1 1 1 1 1 1 
1 1 1 1 1 1 1 1 1 
1 1 1 1 1 1 1 1 1 
1 1 1 1 1 1 1 1 1 
1 1 1 1 1 1 1 1 1 
1 1 1 1 1 1 1 1 1 
1 1 1 1 1 1 1 1 1 
1 1 1 1 1 1 1 1 1 
1 1 1 1 1 1 1 1 1 
1 1 1 1 1 1 1 1 1 
1 1 1 1 1 1 1 1 1 

i 3 837 int
0 0 0 0 0 0 0 0 0 
0 0 0 0 0 0 0 0 0 
0 0 0 0 0 0 0 0 0 
0 0 0 0 0 0 0 0 0 
0 0 0 0 0 0 0 0 0 
0 0 0 0 0 0 0 0 0 
0 0 0 0 0 0 0 0 0 
0 0 0 0 0 0 0 0 0 
0 0 0 0 0 0 0 0 0 
0 0 0 0 0 0 0 0 0 
0 0 0 0 0 0 0 0 0 
0 0 0 0 0 0 0 0 0 
0 0 0 0 0 0 0 0 0 
0 0 0 0 0 0 0 0 0 
0 0 0 0 0 0 0 0 0 
0 0 0 0 0 0 0 0 0 
0 0 0 0 0 0 0 0 0 
0 0 0 0 0 0 0 0 0 
0 0 0 0 0 0 0 0 0 
0 0 0 0 0 0 0 0 0 
0 0 0 0 0 0 0 0 0 
0 0 0 0 0 0 0 0 0 
0 0 0 0 0 0 0 0 0 
0 0 0 0 0 0 0 0 0 
0 0 0 0 0 0 0 0 0 
0 0 0 0 0 0 0 0 0 
0 0 0 0 0 0 0 0 0 
0 0 0 0 0 0 0 0 0 
0 0 0 0 0 0 0 0 0 
0 0 0 0 0 0 0 0 0 
0 0 0 0 0 0 0 0 0 
0 0 0 0 0 0 0 0 0 
0 0 0 0 0 0 0 0 0 
0 0 0 0 0 0 0 0 0 
0 0 0 0 0 0 0 0 0 
0 0 0 0 0 0 0 0 0 
0 0 0 0 0 0 0 0 0 
0 0 0 0 0 0 0 0 0 
0 0 0 0 0 0 0 0 0 
0 0 0 0 0 0 0 0 0 
0 0 0 0 0 0 0 0 0 
0 0 0 0 0 0 0 0 0 
0 0 0 0 0 0 0 0 0 
0 0 0 0 0 0 0 0 0 
0 0 0 0 0 0 0 0 0 
0 0 0 0 0 0 0 0 0 
0 0 0 0 0 0 0 0 0 
0 0 0 0 0 0 0 0 0 
0 0 0 0 0 0 0 0 0 
0 0 0 0 0 0 0 0 0 
0 0 0 0 0 0 0 0 0 
0 0 0 0 0 0 0 0 0 
0 0 0 0 0 0 0 0 0 
0 0 0 0 0 0 0 0 0 
0 0 0 0 0 0 0 0 0 
0 0 0 0 0 0 0 0 0 
0 0 0 0 0 0 0 0 0 
0 0 0 0 0 0 0 0 0 
0 0 0 0 0 0 0 0 0 
0 0 0 0 0 0 0 0 0 
0 0 0 0 0 0 0 0 0 
0 0 0 0 0 0 0 0 0 
0 0 0 0 0 0 0 0 0 
0 0 0 0 0 0 0 0 0 
0 0 0 0 0 0 0 0 0 
0 0 0 0 0 0 0 0 0 
0 0 0 0 0 0 0 0 0 
0 0 0 0 0 0 0 0 0 
0 0 0 0 0 0 0 0 0 
0 0 0 0 0 0 0 0 0 
0 0 0 0 0 0 0 0 0 
0 0 0 0 0 0 0 0 0 
0 0 0 0 0 0 0 0 0 
0 0 0 0 0 0 0 0 0 
0 0 0 0 0 0 0 0 0 
0 0 0 0 0 0 0 0 0 
0 0 0 0 0 0 0 0 0 
0 0 0 0 0 0 0 0 0 
0 0 0 0 0 0 0 0 0 
0 0 0 0 0 0 0 0 0 
0 0 0 0 0 0 0 0 0 
0 0 0 0 0 0 0 0 0 
0 0 0 0 0 0 0 0 0 
0 0 0 0 0 0 0 0 0 
0 0 0 0 0 0 0 0 0 
0 0 0 0 0 0 0 0 0 
0 0 0 0 0 0 0 0 0 
0 0 0 0 0 0 0 0 0 
0 0 0 0 0 0 0 0 0 
0 0 0 0 0 0 0 0 0 
0 0 0 0 0 0 0 0 0 
0 0 0 0 0 0 0 0 0 
0 0 0 0 0 0 0 0 0 
0 0 0 0 0 0 0 0 0 
0 0 0 0 0 0 0 0 0 
0 0 0 0 0 0 0 0 0 
0 0 0 0 0 0 0 0 0 
0 0 0 0 0 0 0 0 0 
0 0 0 0 0 0 0 0 0 
0 0 0 0 0 0 0 0 0 
0 0 0 0 0 0 0 0 0 
0 0 0 0 0 0 0 0 0 
0 0 0 0 0 0 0 0 0 
0 0 0 0 0 0 0 0 0 
0 0 0 0 0 0 0 0 0 
0 0 0 0 0 0 0 0 0 
0 0 0 0 0 0 0 0 0 
0 0 0 0 0 0 0 0 0 
0 0 0 0 0 0 0 0 0 
0 0 0 0 0 0 0 0 0 
0 0 0 0 0 0 0 0 0 
0 0 0 0 0 0 0 0 0 
0 0 0 0 0 0 0 0 0 
0 0 0 0 0 0 0 0 0 
0 0 0 0 0 0 0 0 0 
0 0 0 0 0 0 0 0 0 
0 0 0 0 0 0 0 0 0 
0 0 0 0 0 0 0 0 0 
0 0 0 0 0 0 0 0 0 
0 0 0 0 0 0 0 0 0 
0 0 0 0 0 0 0 0 0 
0 0 0 0 0 0 0 0 0 
0 0 0 0 0 0 0 0 0 
0 0 0 0 0 0 0 0 0 
0 0 0 0 0 0 0 0 0 
0 0 0 0 0 0 0 0 0 
0 0 0 0 0 0 0 0 0 
0 0 0 0 0 0 0 0 0 
0 0 0 0 0 0 0 0 0 
0 0 0 0 0 0 0 0 0 
0 0 0 0 0 0 0 0 0 
0 0 0 0 0 0 0 0 0 
0 0 0 0 0 0 0 0 0 
0 0 0 0 0 0 0 0 0 
0 0 0 0 0 0 0 0 0 
0 0 0 0 0 0 0 0 0 
0 0 0 0 0 0 0 0 0 
0 0 0 0 0 0 0 0 0 
0 0 0 0 0 0 0 0 0 
0 0 0 0 0 0 0 0 0 
0 0 0 0 0 0 0 0 0 
0 0 0 0 0 0 0 0 0 
0 0 0 0 0 0 0 0 0 
0 0 0 0 0 0 0 0 0 
0 0 0 0 0 0 0 0 0 
0 0 0 0 0 0 0 0 0 
0 0 0 0 0 0 0 0 0 
0 0 0 0 0 0 0 0 0 
0 0 0 0 0 0 0 0 0 
0 0 0 0 0 0 0 0 0 
0 0 0 0 0 0 0 0 0 
0 0 0 0 0 0 0 0 0 
0 0 0 0 0 0 0 0 0 
0 0 0 0 0 0 0 0 0 
0 0 0 0 0 0 0 0 0 
0 0 0 0 0 0 0 0 0 
0 0 0 0 0 0 0 0 0 
0 0 0 0 0 0 0 0 0 
0 0 0 0 0 0 0 0 0 
0 0 0 0 0 0 0 0 0 
0 0 0 0 0 0 0 0 0 
0 0 0 0 0 0 0 0 0 
0 0 0 0 0 0 0 0 0 
0 0 0 0 0 0 0 0 0 
0 0 0 0 0 0 0 0 0 
0 0 0 0 0 0 0 0 0 
0 0 0 0 0 0 0 0 0 
0 0 0 0 0 0 0 0 0 
0 0 0 0 0 0 0 0 0 
0 0 0 0 0 0 0 0 0 
0 0 0 0 0 0 0 0 0 
0 0 0 0 0 0 0 0 0 
0 0 0 0 0 0 0 0 0 
0 0 0 0 0 0 0 0 0 
0 0 0 0 0 0 0 0 0 
0 0 0 0 0 0 0 0 0 
0 0 0 0 0 0 0 0 0 
0 0 0 0 0 0 0 0 0 
0 0 0 0 0 0 0 0 0 
0 0 0 0 0 0 0 0 0 
0 0 0 0 0 0 0 0 0 
0 0 0 0 0 0 0 0 0 
0 0 0 0 0 0 0 0 0 
0 0 0 0 0 0 0 0 0 
0 0 0 0 0 0 0 0 0 
0 0 0 0 0 0 0 0 0 
0 0 0 0 0 0 0 0 0 
0 0 0 0 0 0 0 0 0 
0 0 0 0 0 0 0 0 0 
0 0 0 0 0 0 0 0 0 
0 0 0 0 0 0 0 0 0 
0 0 0 0 0 0 0 0 0 
0 0 0 0 0 0 0 0 0 
0 0 0 0 0 0 0 0 0 
0 0 0 0 0 0 0 0 0 
0 0 0 0 0 0 0 0 0 
0 0 0 0 0 0 0 0 0 
0 0 0 0 0 0 0 0 0 
0 0 0 0 0 0 0 0 0 
0 0 0 0 0 0 0 0 0 
0 0 0 0 0 0 0 0 0 
0 0 0 0 0 0 0 0 0 
0 0 0 0 0 0 0 0 0 
0 0 0 0 0 0 0 0 0 
0 0 0 0 0 0 0 0 0 
0 0 0 0 0 0 0 0 0 
0 0 0 0 0 0 0 0 0 
0 0 0 0 0 0 0 0 0 
0 0 0 0 0 0 0 0 0 
0 0 0 0 0 0 0 0 0 
0 0 0 0 0 0 0 0 0 
0 0 0 0 0 0 0 0 0 
0 0 0 0 0 0 0 0 0 
0 0 0 0 0 0 0 0 0 
0 0 0 0 0 0 0 0 0 
0 0 0 0 0 0 0 0 0 
0 0 0 0 0 0 0 0 0 
0 0 0 0 0 0 0 0 0 
0 0 0 0 0 0 0 0 0 
0 0 0 0 0 0 0 0 0 
0 0 0 0 0 0 0 0 0 
0 0 0 0 0 0 0 0 0 
0 0 0 0 0 0 0 0 0 
0 0 0 0 0 0 0 0 0 
0 0 0 0 0 0 0 0 0 
0 0 0 0 0 0 0 0 0 
0 0 0 0 0 0 0 0 0 
0 0 0 0 0 0 0 0 0 
0 0 0 0 0 0 0 0 0 
0 0 0 0 0 0 0 0 0 
0 0 0 0 0 0 0 0 0 
0 0 0 0 0 0 0 0 0 
0 0 0 0 0 0 0 0 0 
0 0 0 0 0 0 0 0 0 
0 0 0 0 0 0 0 0 0 
0 0 0 0 0 0 0 0 0 
0 0 0 0 0 0 0 0 0 
0 0 0 0 0 0 0 0 0 
0 0 0 0 0 0 0 0 0 
0 0 0 0 0 0 0 0 0 
0 0 0 0 0 0 0 0 0 
0 0 0 0 0 0 0 0 0 
0 0 0 0 0 0 0 0 0 
0 0 0 0 0 0 0 0 0 
0 0 0 0 0 0 0 0 0 
0 0 0 0 0 0 0 0 0 
0 0 0 0 0 0 0 0 0 
0 0 0 0 0 0 0 0 0 
0 0 0 0 0 0 0 0 0 
0 0 0 0 0 0 0 0 0 
0 0 0 0 0 0 0 0 0 
0 0 0 0 0 0 0 0 0 
0 0 0 0 0 0 0 0 0 
0 0 0 0 0 0 0 0 0 
0 0 0 0 0 0 0 0 0 
0 0 0 0 0 0 0 0 0 
0 0 0 0 0 0 0 0 0 
0 0 0 0 0 0 0 0 0 
0 0 0 0 0 0 0 0 0 
0 0 0 0 0 0 0 0 0 
0 0 0 0 0 0 0 0 0 
0 0 0 0 0 0 0 0 0 
0 0 0 0 0 0 0 0 0 
0 0 0 0 0 0 0 0 0 
0 0 0 0 0 0 0 0 0 
0 0 0 0 0 0 0 0 0 
0 0 0 0 0 0 0 0 0 
0 0 0 0 0 0 0 0 0 
0 0 0 0 0 0 0 0 0 
0 0 0 0 0 0 0 0 0 
0 0 0 0 0 0 0 0 0 
0 0 0 0 0 0 0 0 0 
0 0 0 0 0 0 0 0 0 
0 0 0 0 0 0 0 0 0 
0 0 0 0 0 0 0 0 0 
0 0 0 0 0 0 0 0 0 
0 0 0 0 0 0 0 0 0 
0 0 0 0 0 0 0 0 0 
0 0 0 0 0 0 0 0 0 

v 3 837 double
-0.768675 0.00768561 -0.322982 -0.929986 -0.0568075 -0.364851 -1.06614 -0.107903 -0.458466 
-0.813529 0.0313874 -0.349283 -0.80372 -0.0101116 -0.302205 -0.914312 -0.0358974 -1.78716 
-1.19539 -0.0596812 -1.8576 -1.15837 0.0255994 -1.80534 -1.06454 -0.0534303 -1.76035 
-1.18598 0.0133406 -1.82596 -1.20847 0.100333 -1.80415 -1.14454 -0.0502975 -1.80346 
-0.988315 -0.0585331 -1.74495 -0.994845 0.0570758 -1.86618 -1.21534 0.0872638 -1.74928 
-1.10167 0.0688633 -1.70306 -0.922339 -0.0354127 -1.7973 -1.09646 0.108861 -1.7155 
-1.17791 -0.0979554 -1.70727 -0.999721 0.112045 -1.72018 -0.859968 -0.134624 -1.66046 
-1.10672 -0.0694735 -1.62664 -1.10149 -0.0704883 -1.61524 -1.14507 -0.146483 -1.63706 
-0.960219 0.050049 -1.58327 -0.954143 0.0332181 -1.58387 -1.11947 -0.0587727 -1.6195 
-0.963045 -0.0675668 -1.58557 -1.12307 -0.0114813 -1.56013 -1.11013 -0.0513517 -1.56123 
-1.0474 -0.0533278 -1.58545 -0.966921 -0.0215957 -1.54407 -1.09262 -0.139258 -1.57928 
-0.966315 -0.00813597 -1.55316 -1.08364 -0.0804219 -1.53589 -1.00002 -0.0294596 -1.48653 
-0.964282 -0.208926 -1.46252 -1.18535 0.015645 -1.55462 -1.0399 0.0239732 -1.53264 
-0.920937 -0.15804 -1.45918 -1.03822 -0.0725238 -1.43972 -1.11521 0.0940956 -1.52229 
-1.09408 0.0509809 -1.4169 -1.09174 0.107324 -1.41589 -1.185 0.181286 -1.45852 
-1.22956 0.218808 -1.44967 -1.13028 0.0706817 -1.41566 -0.931525 -0.0507589 -1.37669 
-1.05424 0.0128972 -1.38198 -1.0994 0.0609424 -1.39104 -0.957441 0.00412971 -1.35501 
-1.0581 -0.260259 -1.34733 -1.07806 0.0159724 -1.34609 -0.998607 -0.103271 -1.34257 
-0.955503 -0.0809711 -1.33664 -0.981793 -0.03774 -1.35924 -1.19731 -0.0137659 -1.37564 
-1.02124 -0.114491 -1.29243 -0.918825 -0.0745457 -1.31685 -0.903137 -0.0626823 -1.30539 
-0.933584 0.0654867 -1.32615 -1.09636 -0.00644754 -1.28626 -1.02462 0.0728468 -1.2579 
-0.917667 -0.0825723 -1.28444 -1.1057 -0.0822859 -1.30253 -1.13785 -0.0769281 -1.27445 
-1.12261 0.112501 -1.23959 -1.10061 -0.0949063 -1.25014 -1.25622 -0.111964 -1.29233 
-0.927815 -0.0557572 -1.23539 -1.20211 0.11334 -1.23138 -1.09055 -0.10352 -1.15073 
-0.897172 0.0806651 -1.19915 -1.00141 -0.0479294 -1.20138 -0.937067 0.00432739 -1.13065 
-0.954853 0.0254883 -1.13612 -0.918801 0.0548237 -1.12628 -0.865269 0.0872996 -1.12896 
-0.760905 0.0124987 -1.16843 -0.990953 0.0356527 -1.14599 -1.07261 0.105866 -1.14112 
-0.935529 -0.0108325 -1.11724 -0.9209 0.0381036 -1.09138 -0.85201 0.0159211 -1.07048 
-1.02912 -0.0472918 -1.08579 -0.957283 0.00957379 -1.07398 -0.96573 -0.0302623 -1.05442 
-0.97751 0.0643312 -1.04071 -1.33799 0.0333986 -1.24321 -1.12071 0.123413 -1.09326 
-0.935655 -0.0389307 -1.06983 -0.76392 0.0590105 -1.07437 -0.925343 0.0662725 -1.07958 
-1.13862 -0.0137652 -1.11581 -1.12827 0.0575809 -1.01778 -1.2095 0.0876381 -1.14711 
-0.97657 0.060896 -1.06414 -0.849407 -0.00249987 -1.04385 -1.06094 -0.0753973 -1.01021 
-0.901075 -0.0182385 -1.03493 -1.21787 -0.0518661 -1.08684 -0.99625 0.0594318 -1.00375 
-0.934124 -0.0763373 -1.00058 -0.854114 0.0622507 -0.99059 -1.06876 -0.0317377 -1.03044 
-1.03471 -0.0487233 -1.03049 -1.04059 -0.0404223 -1.07094 -1.13238 0.0979883 -0.938882 
-0.819169 0.0463987 -0.932563 -1.02909 -0.0378351 -0.935497 -0.968472 -0.0763169 -0.98044 
-0.662324 -0.0890583 -1.07065 -0.937475 0.00207854 -1.08052 -1.13952 -0.0299208 -1.04006 
-1.08619 -0.00364078 -0.934211 -0.851679 0.0719661 -0.919261 -0.843059 0.0562793 -0.898152 
-1.15438 -0.0265574 -0.909374 -0.998687 0.0478707 -0.923461 -1.15658 -0.0380869 -0.984977 
-1.13236 0.123357 -0.966302 -0.942141 -0.0142409 -0.898576 -1.00077 -0.0351216 -0.88758 
-1.13637 -0.0599097 -0.901394 -0.964021 0.000529939 -0.865451 -1.16109 0.0929289 -0.866938 
-0.944002 -0.00261316 -0.858278 -0.815737 0.027157 -0.843435 -0.815334 0.0221386 -0.896842 
-1.16801 -0.120018 -0.892323 -0.905419 -0.00201857 -1.18228 -1.24496 -0.140129 -0.946486 
-1.24383 -0.262663 -0.996477 -0.69999 -0.0786664 -0.760031 -1.1395 0.122618 -0.839826 
-1.0895 0.0920915 -0.864783 -0.999713 0.0646823 -0.718171 -0.897555 -0.0365125 -0.798967 
-0.952244 -0.255493 -0.870703 -1.0939 0.0603272 -0.763841 -1.10036 0.0211727 -0.816376 
-1.0953 0.0345285 -0.77033 -0.971428 0.0440415 -0.730738 -1.21554 -0.15841 -0.755456 
-1.17575 -0.099752 -0.857557 -1.17191 0.136454 -0.778751 -1.02054 -0.000885128 -0.704264 
-0.95652 -0.0325731 -0.76671 -1.096 0.0350439 -0.70115 -1.11442 -0.0942779 -0.756007 
-1.04336 -0.0159088 -0.659233 -1.07785 0.00966422 -0.663544 -1.01823 0.00288026 -0.675032 
-1.02417 -0.0508494 -0.687847 -1.03023 -0.0325939 -0.692925 -1.00241 -0.0354454 -0.685604 
-1.16571 -0.288707 -0.832028 -1.11682 0.0692231 -0.722413 -1.05493 -0.0341769 -0.643437 
-1.08108 0.0146906 -0.636432 -0.970163 -0.0787416 -0.613185 -1.09945 0.0804293 -0.576745 
-1.15066 0.15227 -0.568445 -0.927618 -0.0602206 -0.596207 -0.893744 0.057118 -0.544918 
-1.09474 0.0645417 -0.542173 -0.931863 0.0771087 -0.416792 -0.895343 0.129014 -0.425445 
-1.09892 0.150196 -0.507711 -0.974967 -0.0517911 -0.455495 -0.929439 0.0129178 -0.463525 
-1.09262 -0.103484 -0.491445 -1.04894 0.0807352 -0.529686 -1.07773 -0.0167849 -0.508194 
-1.05677 -0.0150435 -0.481305 -1.26359 0.0641379 -0.610945 -1.04671 0.136552 -0.565538 
-1.1248 0.0100527 -0.446082 -1.13767 0.00659103 -0.467985 -0.930882 -0.02094 -0.392223 
-1.03569 -0.0781738 -0.441499 -0.985261 -0.124732 -0.417724 -1.10525 -0.0263573 -0.466964 
-1.07203 -0.0363971 -0.510599 -1.07598 0.00958493 -0.454287 -1.17388 0.319776 -0.675837 
-0.966629 -0.0656497 -0.407923 -0.964977 0.027748 -0.420738 -0.916594 -0.0388483 -0.385385 
-0.971045 -0.0549417 -0.407534 -0.937074 0.035532 -0.392974 -0.93971 0.0263098 -0.394736 
-1.0722 -0.027577 -0.430335 -1.0222 -0.00219769 -0.592458 -0.968516 -0.0356783 -0.501574 
-1.17184 0.130419 -0.779817 -1.07326 -0.0277362 -0.468597 -1.11119 -0.0328699 -0.470292 
-1.28723 -0.0841547 -0.55236 -0.93136 0.0101192 -0.375182 -1.13144 -0.031255 -0.473951 
-1.0066 0.0460972 -0.404725 -0.917733 -0.0733716 -0.37754 -0.923883 -0.102934 -0.385892 
-1.06976 -0.0888924 -0.448524 -0.916644 0.00981374 -0.382258 -1.11065 -0.140591 -0.490688 
-1.12 -0.140843 -0.494626 -0.951552 -0.0376906 -0.404321 -1.06557 0.132866 -0.265229 
-1.1436 0.162538 -0.572798 -1.14192 0.0636644 -0.488708 -1.0874 0.0429104 -0.461632 
-0.863302 0.0775476 -0.359609 -0.841383 0.0949566 -0.421292 -1.31063 -0.0663258 -0.415547 
-0.863125 0.0156534 -0.348269 -1.03338 -0.0579652 -0.439948 -1.15133 -0.100021 -0.487851 
-1.02589 -0.000884158 -0.417929 -1.16971 0.0968676 -0.483075 -1.05429 -0.115628 -0.390457 
-0.870882 -0.016128 -0.373663 -0.867939 0.0298751 -0.357027 -1.04178 -0.0749297 -0.43733 
-0.816621 0.0310383 -0.347136 -1.01798 -0.0520511 -0.431414 -0.896828 -0.0239829 -0.361438 
-0.976074 0.0626122 -0.412444 -0.788652 0.0161408 -0.380865 -1.05487 -0.0445066 -0.441792 
-0.802793 0.132198 -0.330222 -0.856561 -0.0252629 -0.297557 -0.949881 0.0632154 -0.377785 
-1.36099 0.0596041 -0.486195 -1.10677 0.131071 -0.526778 -0.947536 0.110891 -0.419401 
-0.970099 0.0148634 -0.411873 -0.934147 0.0982029 -0.399859 -0.962866 -0.0130067 -0.399844 
-0.865008 0.0667149 -0.356059 -0.863709 0.0829127 -0.345521 -0.691583 -0.083143 -0.299956 
-1.09625 -0.356359 -0.540054 -0.941032 0.0385766 -0.370667 -0.910152 0.0117066 -0.385659 
-0.756543 -0.0446538 -0.323798 -1.00031 -0.0710263 -0.428337 -0.994319 -0.0614851 -0.418881 
-0.838668 -0.0837863 -0.329474 -0.843599 0.0660558 -0.342207 -0.804261 0.0298353 -0.319713 
-1.08044 -0.25275 -0.517178 -0.839732 -0.0262923 -0.357037 -1.00553 -0.0648866 -0.434591 
-0.845929 0.0486 -0.325733 -1.10303 -0.278109 -0.541601 -0.970488 -0.515798 -0.695894 
-0.940311 0.0423273 -0.384524 -0.83377 -0.0292846 -0.331228 -0.772146 0.0178029 -0.310353 
-0.820653 0.0210562 -0.367329 -0.915194 0.0369632 -0.370193 -0.877771 0.0424972 -0.371918 
-0.880455 0.0492101 -0.357629 -0.873902 0.0484447 -0.365909 -0.952752 -0.109581 -0.410273 
-0.902725 -0.0719376 -0.376879 -0.757867 0.0308177 -0.363585 -0.775082 -0.0559795 -0.289777 
-0.76687 0.130349 -0.316034 -0.760361 0.0835935 -0.320505 -0.766298 0.0260136 -0.324944 
-0.974053 -0.0551575 -0.409797 -0.933035 0.0440529 -0.3699 -0.942278 -0.067523 -0.408743 
-0.9297 -0.0183393 -0.397721 -0.935883 -0.0740514 -0.4068 -0.885817 -0.0411753 -0.372147 
-0.849918 0.0626798 -0.19422 -0.976971 0.000564996 -0.409102 -1.06353 -0.213971 -0.518543 
-0.909093 -0.0685631 -0.317911 -0.885832 -0.0690965 -0.394828 -0.759022 0.147507 -0.418158 
-0.896619 0.00528687 -0.361157 -0.912383 -0.0280159 -0.38655 -0.866318 -0.0182571 -0.362452 
-0.782841 0.0128551 -0.336265 -0.794637 -0.0471877 -0.324148 -0.944217 0.0580566 -0.386318 
-0.984709 0.0149485 -0.363412 -1.1514 0.0184262 -0.817501 -0.975314 0.0608851 -0.395782 
-1.02585 0.0454522 -0.407613 -1.09695 0.00542413 -0.442559 -0.961307 -0.049825 -0.365299 
-0.828074 -0.106077 -0.327708 -0.751578 -0.0776669 -0.296381 -0.796268 -0.13388 -0.293134 
-0.764976 -0.0350885 -0.320474 -0.786946 -0.100449 -0.325844 -0.83319 -0.00774949 -0.344676 
-0.788158 0.0422136 -0.344027 -0.845105 -0.0459147 -0.352472 -0.832697 -0.0500632 -0.346952 
-0.737199 -0.0526299 -0.312676 -0.735392 -0.0262748 -0.441775 -0.653169 -0.0343635 -0.25885 
-0.99752 -0.0405878 -0.398147 -0.712953 -0.122544 -0.292397 -1.09296 0.0784918 -0.510141 
-0.554672 -0.0624192 -0.23832 -0.622486 0.0149743 -0.269069 -0.605274 -0.00392771 -0.251744 