# vtk DataFile Version 4.0
Generated by LIGGGHTS
ASCII
DATASET POLYDATA
POINTS 757 float
-0.492364 0.0130406 -0.400189 -0.496853 0.0247803 -0.40057 -0.464513 -0.00776178 -0.396704 
-0.476133 -0.00442427 -0.39128 -0.482107 0.00894571 -0.392512 -0.47709 -0.0063725 -0.38318 
-0.489527 -0.0362044 -0.380797 -0.476946 0.0343664 -0.375651 -0.467199 0.00527207 -0.373449 
-0.456661 0.0156252 -0.373373 -0.475541 0.0269491 -0.374365 -0.469738 0.0081626 -0.370576 
-0.471953 0.0121842 -0.364648 -0.467019 0.0617988 -0.367927 -0.456265 -0.0124116 -0.364124 
-0.460712 -0.0063477 -0.363603 -0.455833 -0.0047988 -0.36118 -0.462829 -0.00469009 -0.353409 
-0.450828 -0.000210699 -0.351579 -0.448035 -0.0320463 -0.349363 -0.446569 -0.0026944 -0.345983 
-0.447159 0.0170466 -0.345349 -0.466015 -0.0397126 -0.339769 -0.43004 -0.00562632 -0.335772 
-0.438479 -0.0108608 -0.332091 -0.445098 -0.00610158 -0.33118 -0.426247 0.00357273 -0.331521 
-0.415523 -0.0129444 -0.325497 -0.430667 -0.00331445 -0.326912 -0.425605 -0.00297816 -0.324125 
-0.424644 0.00356414 -0.322922 -0.434525 0.00784405 -0.324761 -0.407369 -0.0115676 -0.320918 
-0.422321 -0.0019406 -0.315411 -0.435122 0.0309499 -0.317166 -0.417758 0.00535774 -0.313981 
-0.419364 -0.0134669 -0.308492 -0.412736 -0.00401909 -0.308363 -0.418923 0.0125211 -0.309256 
-0.40809 -0.0160161 -0.305334 -0.41139 0.0166626 -0.306976 -0.412733 -0.0129877 -0.301815 
-0.413969 -0.00919013 -0.301568 -0.407018 -0.00136998 -0.303346 -0.393205 -0.00321239 -0.30292 
-0.405708 0.00540407 -0.303054 -0.387119 -0.000453269 -0.298169 -0.400462 0.00909968 -0.299108 
-0.401674 -0.0104621 -0.294597 -0.400398 -0.00635172 -0.296022 -0.396523 0.0141971 -0.294632 
-0.409737 0.0338147 -0.294344 -0.391833 0.00338752 -0.291356 -0.394355 0.00575676 -0.2927 
-0.390968 -0.0131338 -0.286753 -0.39215 -0.00228125 -0.286202 -0.387484 0.000617836 -0.288505 
-0.390717 -0.0250709 -0.280708 -0.381451 0.00517948 -0.279649 -0.384062 0.0114426 -0.280817 
-0.383223 0.0170036 -0.279654 -0.373003 -0.00963199 -0.276297 -0.377794 -0.0205596 -0.273958 
-0.372853 -0.00532033 -0.273652 -0.379837 0.0223264 -0.272959 -0.370156 -0.014684 -0.269206 
-0.37122 -0.00385495 -0.269346 -0.368241 0.00641488 -0.266478 -0.358554 0.00444574 -0.264523 
-0.367526 -0.0213688 -0.263948 -0.363619 -0.0113708 -0.262893 -0.358509 0.0133324 -0.261325 
-0.361041 0.0168609 -0.261929 -0.375184 -0.0345227 -0.259697 -0.364617 -0.0334929 -0.259138 
-0.360675 -0.0228194 -0.259148 -0.358383 -0.0145037 -0.25918 -0.356896 -0.00848204 -0.25983 
-0.352584 -0.0077349 -0.257925 -0.350547 -0.0035286 -0.257553 -0.356992 0.000611877 -0.259867 
-0.352163 0.00483273 -0.25711 -0.361579 -0.0312818 -0.256136 -0.343137 -0.0019071 -0.253422 
-0.342465 -0.0219969 -0.249567 -0.342872 -0.0148297 -0.252664 -0.339137 -0.00885175 -0.249778 
-0.343741 -0.00521815 -0.253167 -0.341517 -0.00436994 -0.250962 -0.339879 -0.00103586 -0.250942 
-0.344462 0.00393274 -0.252183 -0.339658 0.0122034 -0.24997 -0.348153 0.0295275 -0.250316 
-0.338791 -0.020652 -0.247169 -0.338776 -0.00535328 -0.249011 -0.33689 -0.000553632 -0.249245 
-0.332396 -0.00283612 -0.247893 -0.332789 0.00135475 -0.246776 -0.333828 0.0067014 -0.247427 
-0.336551 0.00831167 -0.248512 -0.333409 0.0097502 -0.246483 -0.336657 0.0115235 -0.249636 
-0.338221 0.0147088 -0.248737 -0.341343 0.0200384 -0.249345 -0.338243 0.0209226 -0.247772 
-0.332355 -0.0249525 -0.243004 -0.334119 -0.0217231 -0.245193 -0.344822 -0.0208937 -0.24534 
-0.326649 -0.0112249 -0.243114 -0.326688 -0.00460542 -0.243392 -0.32623 -0.000177635 -0.243494 
-0.329007 0.00651797 -0.24467 -0.335751 0.0242855 -0.245127 -0.33968 0.0349772 -0.243674 
-0.350041 0.0428303 -0.24574 -0.324408 -0.0228718 -0.239052 -0.320303 -0.0220838 -0.238665 
-0.321669 -0.0146472 -0.240595 -0.324206 -0.0031274 -0.241384 -0.318075 3.67769e-06 -0.240266 
-0.320904 0.00155147 -0.240924 -0.316412 0.00743127 -0.239095 -0.322717 0.0125548 -0.240342 
-0.331253 -0.037669 -0.238351 -0.317519 -0.0177249 -0.238402 -0.313083 -0.0174956 -0.236519 
-0.333344 -0.0150284 -0.237465 -0.313168 -0.00990607 -0.237604 -0.323029 -0.000135945 -0.236548 
-0.309912 0.0016741 -0.236721 -0.332859 0.0413299 -0.235916 -0.315305 -0.033169 -0.23356 
-0.314723 -0.013301 -0.234681 -0.308859 0.00990039 -0.234675 -0.309122 0.0140189 -0.23448 
-0.308342 0.0178403 -0.233344 -0.29445 -0.0109052 -0.229688 -0.293958 -0.00581387 -0.228801 
-0.298492 -0.000743481 -0.23089 -0.293887 0.00787322 -0.22847 -0.294955 0.013855 -0.229638 
-0.302733 0.0169248 -0.231182 -0.309039 0.0356309 -0.228819 -0.307247 -0.0436419 -0.224824 
-0.298194 -0.0244028 -0.227831 -0.288143 -0.00699179 -0.226308 -0.287813 0.00529357 -0.226087 
-0.289612 0.00961448 -0.225084 -0.291785 0.0134043 -0.227244 -0.284529 0.0121603 -0.225358 
-0.290817 0.0294985 -0.224559 -0.305437 0.0381368 -0.226355 -0.287147 -0.0302825 -0.222839 
-0.279221 -0.0232488 -0.22142 -0.280517 -0.0174926 -0.223041 -0.281888 -0.0111781 -0.223288 
-0.278127 -0.00343116 -0.222204 -0.279892 -1.25683e-07 -0.224147 -0.277521 0.00269913 -0.22192 
-0.273358 0.00744894 -0.221015 -0.275806 0.0120277 -0.221765 -0.278313 0.0140597 -0.222557 
-0.291861 0.0322884 -0.222581 -0.293539 0.0385973 -0.222814 -0.27166 -0.0174664 -0.219361 
-0.269415 -0.0133432 -0.2189 -0.268505 -0.00894511 -0.219005 -0.270818 -9.67516e-05 -0.220324 
-0.272266 0.00380441 -0.21966 -0.277338 -0.0369199 -0.21555 -0.264407 -0.0106633 -0.216009 
-0.262263 -0.00659723 -0.216479 -0.260768 -0.00040953 -0.216078 -0.262778 0.00450984 -0.215616 
-0.267901 0.0104728 -0.217476 -0.261604 0.0131112 -0.215645 -0.265506 0.0147535 -0.215948 
-0.268369 0.0209109 -0.217277 -0.257822 -0.00768804 -0.213463 -0.252961 -0.00842643 -0.211377 
-0.257717 0.00569051 -0.213417 -0.250429 0.00974235 -0.211261 -0.272862 0.0390162 -0.212701 
-0.274434 0.0418749 -0.213586 -0.259354 -0.0361393 -0.208523 -0.254673 -0.03294 -0.208862 
-0.247953 -0.0111451 -0.210091 -0.244599 -0.0091573 -0.20889 -0.24286 -0.00478942 -0.207288 
-0.248594 -0.00118801 -0.20985 -0.244745 -7.73828e-05 -0.20926 -0.239829 0.00370975 -0.206998 
-0.24428 0.00838994 -0.20874 -0.244347 0.013882 -0.20826 -0.245324 0.0187422 -0.207959 
-0.249645 0.0294772 -0.20758 -0.254271 -0.0413715 -0.205754 -0.243259 -0.0236635 -0.205265 
-0.234532 -0.0103143 -0.204388 -0.231288 -0.00766084 -0.203242 -0.236234 -0.00520834 -0.205491 
-0.239157 -0.000444816 -0.205666 -0.236257 0.00580273 -0.205459 -0.231685 0.00394586 -0.203617 
-0.241539 0.0172021 -0.205519 -0.237014 0.022034 -0.20405 -0.262514 0.0501978 -0.205259 
-0.249247 -0.0482212 -0.200755 -0.237155 -0.0245347 -0.20238 -0.23074 -0.023455 -0.201035 
-0.227864 -0.0111576 -0.20154 -0.224019 -0.00273316 -0.200504 -0.228723 0.00158812 -0.202409 
-0.228744 0.00634283 -0.202298 -0.230241 0.0093255 -0.202748 -0.22586 0.0138031 -0.200485 
-0.230175 0.024744 -0.200428 -0.236994 0.0283608 -0.202616 -0.235351 0.0307544 -0.201345 
-0.240439 0.0382069 -0.201404 -0.242503 0.0410008 -0.201137 -0.223062 -0.0222365 -0.19763 
-0.223266 -0.016156 -0.198027 -0.216575 -0.00840729 -0.197021 -0.220466 0.0122061 -0.197295 
-0.215999 0.0141154 -0.196245 -0.231405 0.0143327 -0.199854 -0.226712 0.0253017 -0.197999 
-0.221498 0.02467 -0.197061 -0.220734 -0.0272122 -0.19605 -0.216505 -0.0187 -0.194919 
-0.211827 -0.0171879 -0.194165 -0.220656 -0.0122822 -0.196077 -0.214175 -0.0113102 -0.19576 
-0.211487 -0.00960524 -0.194805 -0.206721 -0.00368638 -0.193142 -0.221892 -0.00302938 -0.194142 
-0.211415 0.000536482 -0.193996 -0.213502 0.00652478 -0.195908 -0.217573 0.0210231 -0.195006 
-0.215782 0.0264102 -0.194283 -0.250256 0.0310507 -0.195881 -0.219604 0.0295673 -0.195128 
-0.202654 -0.0161527 -0.190407 -0.2095 -0.0131942 -0.192488 -0.202591 -0.010848 -0.190936 
-0.204862 -0.00701649 -0.1909 -0.201579 -0.00027269 -0.190955 -0.203608 -0.00258248 -0.19182 
-0.211596 0.0307348 -0.191499 -0.207725 0.0289676 -0.190247 -0.213088 0.0348507 -0.191213 
-0.20441 -0.0411674 -0.185676 -0.202188 -0.0281467 -0.188201 -0.202107 -0.0136359 -0.187261 
-0.205087 0.00174674 -0.187292 -0.204844 0.0267542 -0.188368 -0.196754 -0.0224088 -0.187165 
-0.198457 -0.014436 -0.188837 -0.194428 -0.0137414 -0.187105 -0.197498 -0.0113082 -0.188783 
-0.19298 -0.0104965 -0.186898 -0.195073 -0.00707523 -0.187071 -0.195287 -0.000558687 -0.188268 
-0.191532 -0.00277884 -0.186691 -0.197476 0.00350022 -0.188125 -0.198268 0.0115068 -0.189074 
-0.190405 0.0115093 -0.185737 -0.196978 0.0176693 -0.186825 -0.196922 0.0227645 -0.187153 
-0.197254 -0.042134 -0.18237 -0.195392 -0.0295805 -0.183491 -0.19401 -0.0254638 -0.185488 
-0.188136 -0.0186526 -0.183993 -0.190463 -0.0147175 -0.184336 -0.191184 -0.00724654 -0.184204 
-0.184308 -0.00905324 -0.183517 -0.189878 -0.00347779 -0.18301 -0.185744 0.000862647 -0.183201 
-0.184487 0.00510827 -0.183798 -0.189244 0.00871353 -0.185504 -0.186103 0.00847306 -0.184179 
-0.184523 0.0115399 -0.182137 -0.186933 0.0255137 -0.182402 -0.184734 -0.0293901 -0.180681 
-0.182569 -0.0237246 -0.181089 -0.182447 -0.0168216 -0.180779 -0.190943 -0.013534 -0.179366 
-0.181466 -0.0129961 -0.181648 -0.176866 -0.00584471 -0.17992 -0.17951 -0.00426602 -0.181516 
-0.177804 -0.00100197 -0.179607 -0.181355 0.00434938 -0.181304 -0.179452 0.0118638 -0.181095 
-0.173642 0.0129241 -0.178535 -0.184571 0.0165251 -0.181737 -0.178553 0.0207352 -0.179842 
-0.183091 0.0223207 -0.180329 -0.174117 -0.0280749 -0.175406 -0.167377 -0.0175597 -0.175608 
-0.173676 -0.0122296 -0.177692 -0.168848 -0.0134224 -0.17551 -0.177355 -0.00756635 -0.176145 
-0.170418 -0.00267182 -0.177804 -0.164602 0.00171435 -0.1754 -0.167305 0.00581279 -0.176405 
-0.171644 0.0203673 -0.17701 -0.17396 0.0259519 -0.175694 -0.176059 0.0305589 -0.175746 
-0.179713 -0.0401206 -0.174776 -0.159588 -0.0219075 -0.171719 -0.163713 -0.0185072 -0.173856 
-0.172321 -0.017207 -0.17458 -0.16102 -0.0164726 -0.171456 -0.178316 -0.0131495 -0.172336 
-0.163405 -0.00742453 -0.173716 -0.159216 -0.0103228 -0.172841 -0.167612 -0.00534382 -0.172671 
[...]
POINT_DATA 757
FIELD FieldData 7
id 1 757 int
21 5 142 6 60 23 58 11 13 
36 28 41 92 38 10 57 8 130 
40 79 101 48 126 54 67 4 42 
63 14 46 44 59 53 49 75 29 
76 83 93 88 43 104 162 20 122 
62 134 45 15 50 72 114 87 148 
18 100 85 163 70 51 71 181 132 
69 177 116 17 154 158 61 192 174 
37 81 147 52 120 166 47 84 64 
77 39 35 74 109 94 12 156 145 
65 133 91 138 96 55 167 157 25 
73 118 95 98 82 233 137 112 245 
200 111 188 150 222 124 146 176 110 
175 182 196 136 274 244 231 125 86 
103 187 304 143 139 159 89 66 270 
80 186 78 90 281 257 105 140 268 
203 128 127 234 227 113 198 216 232 
171 144 204 228 246 153 121 135 97 
327 201 194 224 170 209 202 165 191 
123 185 141 178 277 215 161 117 102 
164 259 238 265 230 287 211 218 152 
243 155 239 262 131 206 199 290 129 
119 302 252 282 180 260 151 271 183 
347 205 275 219 149 314 220 309 272 
300 278 210 223 258 295 214 208 279 
289 293 342 288 337 189 212 254 251 
250 172 372 190 236 318 184 292 299 
221 115 106 193 207 284 301 311 325 
320 286 317 341 256 315 249 107 169 
225 217 308 168 307 160 197 266 323 
348 355 312 313 229 235 346 344 240 
345 310 333 269 324 365 413 179 297 
378 247 379 280 305 261 322 267 213 
242 381 321 253 241 359 285 226 283 
352 370 319 255 237 373 425 303 338 
316 358 376 331 329 380 389 264 332 
350 405 403 328 248 374 335 391 273 
349 330 291 326 367 384 354 411 173 
392 294 336 393 371 296 396 386 394 
415 306 395 334 414 406 441 388 402 
377 429 276 298 400 362 432 409 428 
382 447 442 339 407 369 383 356 404 
385 430 448 426 457 423 419 401 463 
398 360 437 351 343 438 387 375 458 
424 399 357 439 397 446 410 452 468 
408 472 412 364 340 427 480 500 390 
475 417 418 434 460 363 504 479 492 
473 513 440 469 490 478 431 421 464 
422 433 535 455 443 368 465 466 450 
471 453 416 353 195 476 482 512 470 
481 435 483 533 525 523 484 361 514 
467 420 366 491 445 495 474 528 566 
494 507 502 558 509 496 461 459 449 
477 489 532 487 498 527 454 444 503 
537 436 486 493 511 505 488 497 563 
510 559 524 542 584 573 517 541 520 
519 577 508 518 777 589 765 506 576 
521 540 534 548 526 572 499 568 501 
522 529 515 565 594 539 485 552 462 
599 570 609 530 562 547 536 516 543 
586 554 451 531 618 544 545 569 602 
619 546 603 575 578 611 614 596 623 
581 588 597 616 587 538 582 585 549 
635 579 615 604 628 634 622 613 551 
556 555 550 595 592 574 590 600 605 
632 610 580 591 606 627 621 620 612 
561 607 629 601 626 567 617 571 608 
630 557 583 564 625 624 598 593 633 
631 263 637 645 553 644 642 641 560 
639 638 647 456 648 636 643 655 646 
658 654 640 660 656 650 653 659 649 
651 652 657 661 672 663 667 674 670 
665 671 673 669 664 679 666 668 662 
682 680 685 687 676 686 681 683 678 
675 684 697 677 698 693 691 689 695 
688 700 694 690 699 710 696 705 692 
706 708 712 702 713 711 709 707 703 
701 704 716 720 717 719 722 725 723 
721 715 718 724 714 730 726 735 728 
738 734 732 727 729 736 737 731 739 
733 744 750 749 752 745 741 742 743 
746 747 740 751 748 758 755 763 761 
756 764 757 759 754 762 760 776 753 
769 772 768 775 773 774 766 771 770 
767 
type 1 757 int
1 1 1 1 1 1 1 1 1 
1 1 1 1 1 1 1 1 1 
1 1 1 1 1 1 1 1 1 
1 1 1 1 1 1 1 1 1 
1 1 1 1 1 1 1 1 1 
1 1 1 1 1 1 1 1 1 
1 1 1 1 1 1 1 1 1 
1 1 1 1 1 1 1 1 1 
1 1 1 1 1 1 1 1 1 
1 1 1 1 1 1 1 1 1 
1 1 1 1 1 1 1 1 1 
1 1 1 1 1 1 1 1 1 
1 1 1 1 1 1 1 1 1 
1 1 1 1 1 1 1 1 1 
1 1 1 1 1 1 1 1 1 
1 1 1 1 1 1 1 1 1 
1 1 1 1 1 1 1 1 1 
1 1 1 1 1 1 1 1 1 
1 1 1 1 1 1 1 1 1 
1 1 1 1 1 1 1 1 1 
1 1 1 1 1 1 1 1 1 
1 1 1 1 1 1 1 1 1 
1 1 1 1 1 1 1 1 1 
1 1 1 1 1 1 1 1 1 
1 1 1 1 1 1 1 1 1 
1 1 1 1 1 1 1 1 1 
1 1 1 1 1 1 1 1 1 
1 1 1 1 1 1 1 1 1 
1 1 1 1 1 1 1 1 1 
1 1 1 1 1 1 1 1 1 
1 1 1 1 1 1 1 1 1 
1 1 1 1 1 1 1 1 1 
1 1 1 1 1 1 1 1 1 
1 1 1 1 1 1 1 1 1 
1 1 1 1 1 1 1 1 1 
1 1 1 1 1 1 1 1 1 
1 1 1 1 1 1 1 1 1 
1 1 1 1 1 1 1 1 1 
1 1 1 1 1 1 1 1 1 
1 1 1 1 1 1 1 1 1 
1 1 1 1 1 1 1 1 1 
1 1 1 1 1 1 1 1 1 
1 1 1 1 1 1 1 1 1 
1 1 1 1 1 1 1 1 1 
1 1 1 1 1 1 1 1 1 
1 1 1 1 1 1 1 1 1 
1 1 1 1 1 1 1 1 1 
1 1 1 1 1 1 1 1 1 
1 1 1 1 1 1 1 1 1 
1 1 1 1 1 1 1 1 1 
1 1 1 1 1 1 1 1 1 
1 1 1 1 1 1 1 1 1 
1 1 1 1 1 1 1 1 1 
1 1 1 1 1 1 1 1 1 
1 1 1 1 1 1 1 1 1 
1 1 1 1 1 1 1 1 1 
1 1 1 1 1 1 1 1 1 
1 1 1 1 1 1 1 1 1 
1 1 1 1 1 1 1 1 1 
1 1 1 1 1 1 1 1 1 
1 1 1 1 1 1 1 1 1 
1 1 1 1 1 1 1 1 1 
1 1 1 1 1 1 1 1 1 
1 1 1 1 1 1 1 1 1 
1 1 1 1 1 1 1 1 1 
1 1 1 1 1 1 1 1 1 
1 1 1 1 1 1 1 1 1 
1 1 1 1 1 1 1 1 1 
1 1 1 1 1 1 1 1 1 
1 1 1 1 1 1 1 1 1 
1 1 1 1 1 1 1 1 1 
1 1 1 1 1 1 1 1 1 
1 1 1 1 1 1 1 1 1 
1 1 1 1 1 1 1 1 1 
1 1 1 1 1 1 1 1 1 
1 1 1 1 1 1 1 1 1 
1 1 1 1 1 1 1 1 1 
1 1 1 1 1 1 1 1 1 
1 1 1 1 1 1 1 1 1 
1 1 1 1 1 1 1 1 1 
1 1 1 1 1 1 1 1 1 
1 1 1 1 1 1 1 1 1 
1 1 1 1 1 1 1 1 1 
1 1 1 1 1 1 1 1 1 
1 
i 3 757 int
0 0 0 0 0 0 0 0 0 
0 0 0 0 0 0 0 0 0 
0 0 0 0 0 0 0 0 0 
0 0 0 0 0 0 0 0 0 
0 0 0 0 0 0 0 0 0 
0 0 0 0 0 0 0 0 0 
0 0 0 0 0 0 0 0 0 
0 0 0 0 0 0 0 0 0 
0 0 0 0 0 0 0 0 0 
0 0 0 0 0 0 0 0 0 
0 0 0 0 0 0 0 0 0 
0 0 0 0 0 0 0 0 0 
0 0 0 0 0 0 0 0 0 
0 0 0 0 0 0 0 0 0 
0 0 0 0 0 0 0 0 0 
0 0 0 0 0 0 0 0 0 
0 0 0 0 0 0 0 0 0 
0 0 0 0 0 0 0 0 0 
0 0 0 0 0 0 0 0 0 
0 0 0 0 0 0 0 0 0 
0 0 0 0 0 0 0 0 0 
0 0 0 0 0 0 0 0 0 
0 0 0 0 0 0 0 0 0 
0 0 0 0 0 0 0 0 0 
0 0 0 0 0 0 0 0 0 
0 0 0 0 0 0 0 0 0 
0 0 0 0 0 0 0 0 0 
0 0 0 0 0 0 0 0 0 
0 0 0 0 0 0 0 0 0 
0 0 0 0 0 0 0 0 0 
0 0 0 0 0 0 0 0 0 
0 0 0 0 0 0 0 0 0 
0 0 0 0 0 0 0 0 0 
0 0 0 0 0 0 0 0 0 
0 0 0 0 0 0 0 0 0 
0 0 0 0 0 0 0 0 0 
0 0 0 0 0 0 0 0 0 
0 0 0 0 0 0 0 0 0 
0 0 0 0 0 0 0 0 0 
0 0 0 0 0 0 0 0 0 
0 0 0 0 0 0 0 0 0 
0 0 0 0 0 0 0 0 0 
0 0 0 0 0 0 0 0 0 
0 0 0 0 0 0 0 0 0 
0 0 0 0 0 0 0 0 0 
0 0 0 0 0 0 0 0 0 
0 0 0 0 0 0 0 0 0 
0 0 0 0 0 0 0 0 0 
0 0 0 0 0 0 0 0 0 
0 0 0 0 0 0 0 0 0 
0 0 0 0 0 0 0 0 0 
0 0 0 0 0 0 0 0 0 
0 0 0 0 0 0 0 0 0 
0 0 0 0 0 0 0 0 0 
0 0 0 0 0 0 0 0 0 
0 0 0 0 0 0 0 0 0 
0 0 0 0 0 0 0 0 0 
0 0 0 0 0 0 0 0 0 
0 0 0 0 0 0 0 0 0 
0 0 0 0 0 0 0 0 0 
0 0 0 0 0 0 0 0 0 
0 0 0 0 0 0 0 0 0 
0 0 0 0 0 0 0 0 0 
0 0 0 0 0 0 0 0 0 
0 0 0 0 0 0 0 0 0 
0 0 0 0 0 0 0 0 0 
0 0 0 0 0 0 0 0 0 
0 0 0 0 0 0 0 0 0 
0 0 0 0 0 0 0 0 0 
0 0 0 0 0 0 0 0 0 
0 0 0 0 0 0 0 0 0 
0 0 0 0 0 0 0 0 0 
0 0 0 0 0 0 0 0 0 
0 0 0 0 0 0 0 0 0 
0 0 0 0 0 0 0 0 0 
0 0 0 0 0 0 0 0 0 
0 0 0 0 0 0 0 0 0 
0 0 0 0 0 0 0 0 0 
0 0 0 0 0 0 0 0 0 
0 0 0 0 0 0 0 0 0 
0 0 0 0 0 0 0 0 0 
0 0 0 0 0 0 0 0 0 
0 0 0 0 0 0 0 0 0 
0 0 0 0 0 0 0 0 0 
0 0 0 0 0 0 0 0 0 
0 0 0 0 0 0 0 0 0 
0 0 0 0 0 0 0 0 0 
0 0 0 0 0 0 0 0 0 
0 0 0 0 0 0 0 0 0 
0 0 0 0 0 0 0 0 0 
0 0 0 0 0 0 0 0 0 
0 0 0 0 0 0 0 0 0 
0 0 0 0 0 0 0 0 0 
0 0 0 0 0 0 0 0 0 
0 0 0 0 0 0 0 0 0 
0 0 0 0 0 0 0 0 0 
0 0 0 0 0 0 0 0 0 
0 0 0 0 0 0 0 0 0 
0 0 0 0 0 0 0 0 0 
0 0 0 0 0 0 0 0 0 
0 0 0 0 0 0 0 0 0 
0 0 0 0 0 0 0 0 0 
0 0 0 0 0 0 0 0 0 
0 0 0 0 0 0 0 0 0 
0 0 0 0 0 0 0 0 0 
0 0 0 0 0 0 0 0 0 
0 0 0 0 0 0 0 0 0 
0 0 0 0 0 0 0 0 0 
0 0 0 0 0 0 0 0 0 
0 0 0 0 0 0 0 0 0 
0 0 0 0 0 0 0 0 0 
0 0 0 0 0 0 0 0 0 
0 0 0 0 0 0 0 0 0 
0 0 0 0 0 0 0 0 0 
0 0 0 0 0 0 0 0 0 
0 0 0 0 0 0 0 0 0 
0 0 0 0 0 0 0 0 0 
0 0 0 0 0 0 0 0 0 
0 0 0 0 0 0 0 0 0 
0 0 0 0 0 0 0 0 0 
0 0 0 0 0 0 0 0 0 
0 0 0 0 0 0 0 0 0 
0 0 0 0 0 0 0 0 0 
0 0 0 0 0 0 0 0 0 
0 0 0 0 0 0 0 0 0 
0 0 0 0 0 0 0 0 0 
0 0 0 0 0 0 0 0 0 
0 0 0 0 0 0 0 0 0 
0 0 0 0 0 0 0 0 0 
0 0 0 0 0 0 0 0 0 
0 0 0 0 0 0 0 0 0 
0 0 0 0 0 0 0 0 0 
0 0 0 0 0 0 0 0 0 
0 0 0 0 0 0 0 0 0 
0 0 0 0 0 0 0 0 0 
0 0 0 0 0 0 0 0 0 
0 0 0 0 0 0 0 0 0 
0 0 0 0 0 0 0 0 0 
0 0 0 0 0 0 0 0 0 
0 0 0 0 0 0 0 0 0 
0 0 0 0 0 0 0 0 0 
0 0 0 0 0 0 0 0 0 
0 0 0 0 0 0 0 0 0 
0 0 0 0 0 0 0 0 0 
0 0 0 0 0 0 0 0 0 
0 0 0 0 0 0 0 0 0 
0 0 0 0 0 0 0 0 0 
0 0 0 0 0 0 0 0 0 
0 0 0 0 0 0 0 0 0 
0 0 0 0 0 0 0 0 0 
0 0 0 0 0 0 0 0 0 
0 0 0 0 0 0 0 0 0 
0 0 0 0 0 0 0 0 0 
0 0 0 0 0 0 0 0 0 
0 0 0 0 0 0 0 0 0 
0 0 0 0 0 0 0 0 0 
0 0 0 0 0 0 0 0 0 
0 0 0 0 0 0 0 0 0 
0 0 0 0 0 0 0 0 0 
0 0 0 0 0 0 0 0 0 
0 0 0 0 0 0 0 0 0 
0 0 0 0 0 0 0 0 0 
0 0 0 0 0 0 0 0 0 
0 0 0 0 0 0 0 0 0 
0 0 0 0 0 0 0 0 0 
0 0 0 0 0 0 0 0 0 
0 0 0 0 0 0 0 0 0 
0 0 0 0 0 0 0 0 0 
0 0 0 0 0 0 0 0 0 
0 0 0 0 0 0 0 0 0 
0 0 0 0 0 0 0 0 0 
0 0 0 0 0 0 0 0 0 
0 0 0 0 0 0 0 0 0 
0 0 0 0 0 0 0 0 0 
0 0 0 0 0 0 0 0 0 
0 0 0 0 0 0 0 0 0 
0 0 0 0 0 0 0 0 0 
0 0 0 0 0 0 0 0 0 
0 0 0 0 0 0 0 0 0 
0 0 0 0 0 0 0 0 0 
0 0 0 0 0 0 0 0 0 
0 0 0 0 0 0 0 0 0 
0 0 0 0 0 0 0 0 0 
0 0 0 0 0 0 0 0 0 
0 0 0 0 0 0 0 0 0 
0 0 0 0 0 0 0 0 0 
0 0 0 0 0 0 0 0 0 
0 0 0 0 0 0 0 0 0 
0 0 0 0 0 0 0 0 0 
0 0 0 0 0 0 0 0 0 
0 0 0 0 0 0 0 0 0 
0 0 0 0 0 0 0 0 0 
0 0 0 0 0 0 0 0 0 
0 0 0 0 0 0 0 0 0 
0 0 0 0 0 0 0 0 0 
0 0 0 0 0 0 0 0 0 
0 0 0 0 0 0 0 0 0 
0 0 0 0 0 0 0 0 0 
0 0 0 0 0 0 0 0 0 
0 0 0 0 0 0 0 0 0 
0 0 0 0 0 0 0 0 0 
0 0 0 0 0 0 0 0 0 
0 0 0 0 0 0 0 0 0 
0 0 0 0 0 0 0 0 0 
0 0 0 0 0 0 0 0 0 
0 0 0 0 0 0 0 0 0 
0 0 0 0 0 0 0 0 0 
0 0 0 0 0 0 0 0 0 
0 0 0 0 0 0 0 0 0 
0 0 0 0 0 0 0 0 0 
0 0 0 0 0 0 0 0 0 
0 0 0 0 0 0 0 0 0 
0 0 0 0 0 0 0 0 0 
0 0 0 0 0 0 0 0 0 
0 0 0 0 0 0 0 0 0 
0 0 0 0 0 0 0 0 0 
0 0 0 0 0 0 0 0 0 
0 0 0 0 0 0 0 0 0 
0 0 0 0 0 0 0 0 0 
0 0 0 0 0 0 0 0 0 
0 0 0 0 0 0 0 0 0 
0 0 0 0 0 0 0 0 0 
0 0 0 0 0 0 0 0 0 
0 0 0 0 0 0 0 0 0 
0 0 0 0 0 0 0 0 0 
0 0 0 0 0 0 0 0 0 
0 0 0 0 0 0 0 0 0 
0 0 0 0 0 0 0 0 0 
0 0 0 0 0 0 0 0 0 
0 0 0 0 0 0 0 0 0 
0 0 0 0 0 0 0 0 0 
0 0 0 0 0 0 0 0 0 
0 0 0 0 0 0 0 0 0 
0 0 0 0 0 0 0 0 0 
0 0 0 0 0 0 0 0 0 
0 0 0 0 0 0 0 0 0 
0 0 0 0 0 0 0 0 0 
0 0 0 0 0 0 0 0 0 
0 0 0 0 0 0 0 0 0 
0 0 0 0 0 0 0 0 0 
0 0 0 0 0 0 0 0 0 
0 0 0 0 0 0 0 0 0 
0 0 0 0 0 0 0 0 0 
0 0 0 0 0 0 0 0 0 
0 0 0 0 0 0 0 0 0 
0 0 0 0 0 0 0 0 0 
0 0 0 0 0 0 0 0 0 
0 0 0 0 0 0 0 0 0 
0 0 0 0 0 0 0 0 0 
0 0 0 0 0 0 0 0 0 
0 0 0 0 0 0 0 0 0 
0 0 0 0 0 0 0 0 0 
0 0 0 
v 3 757 double
-1.27086 -0.0159577 -1.8475 -1.25753 0.0630385 -1.82777 -1.36559 -0.0590547 -2.02937 
-1.17123 0.0260053 -1.78888 -1.17479 0.0230187 -1.77547 -1.20375 0.00503665 -1.72745 
-1.28551 0.102613 -1.81074 -1.22067 0.0285474 -1.71552 -1.21196 0.0390049 -1.68581 
-1.08435 0.0642844 -1.67155 -1.2302 0.00574051 -1.71011 -1.24643 -0.117866 -1.69809 
-1.34796 0.269572 -1.6744 -1.0323 0.152826 -1.65536 -1.116 0.019221 -1.61557 
-1.22662 -0.116708 -1.63455 -1.22068 -0.298572 -1.66239 -1.37075 -0.249623 -1.62295 
-1.19979 -0.0555813 -1.56145 -1.10241 -0.0910185 -1.53184 -1.20344 -0.0768672 -1.52676 
-1.19319 -0.0892842 -1.53407 -1.19839 0.239857 -1.67109 -1.08092 -0.0613343 -1.44042 
-1.27485 0.17461 -1.48774 -1.31844 0.0999611 -1.43944 -1.07951 0.0100131 -1.40322 
-0.973525 -0.054984 -1.35788 -1.20031 -0.116061 -1.39989 -1.1745 -0.054974 -1.36591 
-1.16531 -0.100774 -1.36061 -1.277 -0.273313 -1.43299 -0.950694 -0.0282768 -1.33999 
-1.21623 0.0824053 -1.30221 -1.27791 -0.159827 -1.40932 -1.16483 0.0470791 -1.29414 
-1.22816 0.208558 -1.30189 -1.13593 0.0982091 -1.2331 -1.11646 -0.190801 -1.25264 
-1.00125 -0.056749 -1.19186 -1.14832 -0.0493155 -1.24695 -1.23274 0.169146 -1.22935 
-1.14703 0.278463 -1.30954 -1.15392 0.253472 -1.22468 -0.927985 -0.0893705 -1.17813 
-1.16496 0.313566 -1.22613 -0.916792 0.00792413 -1.177 -1.0702 0.0723754 -1.14016 
-1.16235 0.0278991 -1.13166 -1.14927 0.0317068 -1.13554 -1.0697 -0.178245 -1.14947 
-1.25689 0.0342867 -1.19487 -1.06247 -0.0318213 -1.04629 -1.14264 -0.0465569 -1.15438 
-1.1263 -0.0230756 -1.04482 -1.06719 -0.01735 -0.967169 -1.05461 -0.0269159 -1.05714 
-1.2255 0.338249 -1.15386 -1.15631 -0.04943 -0.995519 -1.13458 0.0303929 -1.01057 
-1.15352 0.0596096 -0.989944 -1.06918 0.00527484 -0.977906 -1.08618 -0.129173 -0.895018 
-1.10517 0.0370108 -0.936608 -1.21306 -0.0523629 -0.973548 -1.04079 0.00651297 -0.866338 
-1.13677 0.0257101 -0.87572 -1.25934 -0.101095 -0.89596 -1.08849 -0.0675976 -0.851951 
-1.18328 0.102491 -0.84393 -1.08167 -0.0200369 -0.778616 -1.15856 0.079826 -0.79212 
-1.17128 -0.0833829 -0.827423 -1.31752 0.207942 -0.878817 -1.08577 0.104779 -0.900408 
-1.08858 -0.00313056 -0.765765 -1.26404 0.214881 -0.820855 -1.05827 0.0730597 -0.758502 
-1.04712 0.0604206 -0.711637 -0.961548 0.0916634 -0.68542 -1.09304 0.0583722 -0.753778 
-1.07089 0.0764774 -0.722005 -1.08279 0.0902998 -0.752896 -0.899299 0.142856 -0.648189 
-0.951131 -0.0228196 -0.575199 -0.973134 0.0703171 -0.684461 -0.941809 0.177325 -0.56297 
-1.01904 0.0990585 -0.650812 -1.0324 0.0783191 -0.587316 -1.06497 -0.0660034 -0.619988 
-1.06973 -0.0390535 -0.657754 -1.04446 -0.0227815 -0.606286 -0.890193 -0.0398723 -0.637185 
-1.22374 -0.113084 -0.595274 -1.02105 0.0716794 -0.526261 -1.05117 -0.145878 -0.593356 
-1.0019 0.075526 -0.789504 -1.21061 0.144439 -0.589889 -1.02012 -0.0691582 -0.573716 
-1.02561 -0.0353521 -0.57353 -1.01956 -0.059453 -0.521604 -1.02523 -0.021201 -0.66617 
-1.01979 -0.0331081 -0.585914 -1.05417 0.0584524 -0.603056 -0.886289 -0.129696 -0.56364 
-1.07018 0.1249 -0.570718 -1.071 0.176431 -0.661148 -1.08383 -0.051568 -0.523235 
-1.10644 0.0822318 -0.482535 -0.974827 0.0231995 -0.401734 -1.12355 0.027498 -0.478375 
-1.08484 -0.0586101 -0.52501 -1.25073 -0.116309 -0.643509 -1.12835 -0.419055 -0.777107 
-0.988256 0.109287 -0.56437 -0.940761 0.13536 -0.417629 -1.00755 -0.0227217 -0.396361 
-0.9273 0.0533049 -0.377078 -1.00178 0.126971 -0.26 -1.11132 0.176477 -0.473388 
-0.439986 0.0852427 -0.00395516 -1.18225 -0.087239 -0.503081 -1.19336 0.143515 -0.493635 
-1.23671 0.0350299 -0.599947 -0.884894 0.0206976 -0.343679 -0.936191 0.137443 -0.417629 
-1.06646 0.310137 -0.444963 -0.767152 0.244782 -0.370347 -1.40563 -0.245875 0.202545 
-1.06338 -0.0282556 -0.44998 -1.12203 -0.151544 -0.567878 -1.18907 0.104916 -0.593084 
-0.969406 0.109652 -0.455434 -1.13857 -0.0985275 -0.486138 -1.16297 -0.0816357 -0.629223 
-1.1858 -0.0907589 -0.512407 -1.0403 0.0461458 -0.442691 -1.06047 0.00846813 -0.447539 
-1.06001 0.0412222 -0.448396 -1.00803 0.208918 -0.394437 -0.925882 0.123121 -0.372411 
-1.15944 -0.0448877 -0.492688 -1.13184 -0.220176 -0.478882 -1.23123 -0.00175991 -0.496635 
-1.08194 -0.070581 -0.411299 -1.0376 -0.0352083 -0.436491 -1.08203 -0.0555599 -0.459763 
-0.881651 0.13332 -0.460624 -0.933559 0.0383415 -0.39134 -1.07965 -0.230678 -0.456788 
-0.918272 -0.0322123 -0.410254 -1.06902 -0.280969 -0.401962 -1.06238 0.00166262 -0.408283 
-1.076 -0.107666 -0.429517 -0.918032 -0.0659731 -0.370953 -0.972681 -0.0250228 -0.406637 
-1.03116 0.0532458 -0.43772 -0.890082 0.0140227 -0.376237 -0.959062 -0.0115277 -0.397351 
-0.942182 0.0532208 -0.383272 -0.990308 -0.0328906 -0.410797 -0.997914 -0.0362975 -0.434309 
-0.994841 0.0624406 -0.511291 -1.18034 -0.523237 -0.624234 -1.06084 -0.0559006 -0.428674 
-0.910529 0.0143825 -0.386648 -0.947562 0.100309 -0.40765 -0.704437 0.0190727 -0.2964 
-0.974504 0.0282972 -0.413112 -1.04418 0.147793 -0.506525 -1.06315 -0.0196514 -0.442178 
-0.905853 -0.00298977 -0.383921 -0.907588 -0.0328116 -0.387348 -0.936617 -0.0477971 -0.400865 
-1.03559 -0.0216145 -0.434319 -0.989953 0.0426668 -0.39306 -0.990932 -0.0409251 -0.426328 
-1.00573 -0.104911 -0.436395 -0.970132 -0.0379635 -0.411338 -0.96147 -0.0845505 -0.403399 
-0.96666 0.00340696 -0.404424 -0.816424 0.0374767 -0.339018 -0.957069 -0.303673 -0.604281 
-0.939734 -0.295133 -0.5279 -1.01421 0.15627 -0.472035 -0.903288 0.140747 -0.42434 
-0.961694 -0.0567076 -0.373134 -0.935264 0.0153803 -0.397606 -0.999094 0.0179996 -0.42511 
-0.73123 -0.0308673 -0.311066 -0.733319 -0.00408481 -0.312153 -0.798072 0.0409563 -0.359084 
-0.796748 -0.0149662 -0.334032 -0.998668 -0.0455874 -0.428956 -0.975325 -0.0253511 -0.417379 
-1.01249 -0.199964 -0.463908 -0.95847 0.0315399 -0.371813 -0.911825 0.160475 -0.432075 
-0.786144 -0.0669135 -0.336611 -0.82656 -0.110816 -0.334418 -0.930724 0.0591342 -0.403188 
-0.950097 -0.106882 -0.419438 -0.704963 0.0168142 -0.293225 -0.907164 -0.0742112 -0.383784 
-1.02533 0.0866347 -0.412362 -0.852855 -0.0814614 -0.363727 -0.913102 -0.266519 -0.489236 
-1.22717 0.138782 -0.531692 -1.01791 0.00307153 -0.444309 -1.01699 -0.0126652 -0.413606 
-0.749013 0.00733859 -0.321313 -0.876411 0.0249051 -0.374485 -0.949351 -0.0919544 -0.408543 
-0.863597 -0.015958 -0.370557 -0.785895 0.05657 -0.37903 -0.849993 0.195934 -0.320602 
-0.863144 0.0933188 -0.453665 -0.981518 -0.0261343 -0.415965 -1.04959 -0.130711 -0.459766 
-1.06106 -0.0059217 -0.416237 -1.06464 0.0190689 -0.413151 -0.810016 -0.0497481 -0.281894 
-0.852617 -0.0375488 -0.37181 -0.839177 0.0591185 -0.353158 -0.834772 -0.0290699 -0.359881 
-0.818599 0.0586749 -0.337568 -1.04962 -0.0645066 -0.797272 -0.852596 -0.0286189 -0.3663 
-0.800449 0.0304529 -0.329715 -0.995395 -0.205464 -0.367278 -0.83941 -0.0350707 -0.355598 
-0.797828 0.00902664 -0.344257 -0.785193 0.0407083 -0.542137 -0.881476 0.067166 -0.372098 
-0.870257 0.0596858 -0.363984 -0.767314 -0.0189433 -0.31619 -1.18726 0.0556993 -0.82595 
-0.816182 -0.0132529 -0.353188 -0.805752 0.0995906 -0.346948 -0.754242 0.00156909 -0.311601 
-0.898942 -0.00914121 -0.382104 -1.05368 0.0855229 -0.7252 -1.01131 -0.00628438 -0.413328 
-0.856119 0.000848926 -0.349325 -0.882533 0.0209692 -0.388985 -0.767456 0.0249533 -0.305053 
-0.89673 0.00762678 -0.419999 -0.731461 0.104622 -0.312081 -0.740005 0.0810429 -0.317301 
-0.832557 -0.147756 -0.378683 -0.901899 -0.0231005 -0.361667 -0.913241 -0.0618761 -0.400963 
-0.916312 -0.0540897 -0.359485 -0.851338 -0.0662528 -0.330805 -0.795823 -0.041667 -0.323112 
-0.874535 -0.0669522 -0.937071 -0.888315 -0.0615035 -0.353603 -0.790095 0.0119586 -0.339872 
-0.791794 -0.00977057 -0.338791 -0.959042 0.158203 -0.452717 -0.878627 0.0390516 -0.365408 
-0.802854 0.0329455 -0.266078 -0.889663 0.0277055 -0.378707 -0.731208 -0.0426911 -0.303714 
-0.906875 0.0612413 -0.37854 -0.654364 0.00761411 -0.272104 -0.78764 -0.0285087 -0.329 
-0.790257 -0.00448621 -0.338692 -0.801209 0.0404331 -0.32671 -0.867896 -0.143303 -0.398113 
-1.01061 -0.0118725 -0.397487 -1.02241 0.0228784 -0.428351 -0.822214 0.108776 -0.412655 
-0.829791 0.0160109 -0.34454 -0.889151 0.0168944 -0.369112 -0.848396 -0.0211573 -0.360339 
-0.842224 -0.017105 -0.361786 -0.924831 0.0403032 -0.411579 -0.787866 0.0119762 -0.337645 
-0.734074 0.0341585 -0.313952 -0.787845 -0.0039565 -0.3376 -0.766362 0.00327658 -0.318699 
-0.755498 0.00770017 -0.309521 -0.880035 -0.0466451 -0.379884 -0.861169 -0.0451053 -0.349451 
-0.869299 -0.0412224 -0.358261 -0.844505 0.00681384 -0.341703 -1.09777 -0.181021 -0.405118 
-0.722716 0.0781293 -0.264776 -0.784704 0.0070791 -0.306383 -0.807035 -0.143125 -0.350059 
-0.846884 -0.0834998 -0.341963 -0.734549 -0.0740356 -0.286314 -0.722531 -0.00420689 -0.307465 
-0.712346 0.0571326 -0.299204 -0.752465 0.0127168 -0.314578 -0.923267 -0.109235 -0.409892 
-0.777628 -0.0211582 -0.33153 -0.792414 -0.20744 -0.275156 -0.786192 -0.0468688 -0.329176 
-0.748673 -0.0187628 -0.318332 -0.724284 0.0496907 -0.3151 -0.939888 -0.123543 -0.193554 
-0.700636 0.00943638 -0.28853 -0.712418 -0.0384074 -0.308359 -0.881744 0.0622238 -0.398018 
-0.799475 -0.00849408 -0.338571 -0.862686 -0.0411527 -0.395323 -0.93321 -0.0616282 -0.397113 
-0.826625 0.231031 -0.408733 -0.751111 -0.0226534 -0.320069 -0.761183 -0.0428764 -0.307978 
-1.14186 -0.406413 -0.819488 -0.806617 0.0824441 -0.264995 -1.07075 -0.106714 -0.292861 
-0.735262 -0.018228 -0.301484 -0.605905 0.0397261 -0.254179 -0.850411 -0.0343788 -0.462117 
-0.699605 0.0097274 -0.302087 -0.637132 -0.0327294 -0.324847 -0.863607 0.064267 -0.354844 
-0.847492 0.0720783 -0.339849 -0.854187 0.071728 -0.351199 -0.785227 0.0190625 -0.327328 
-0.895121 0.00744814 -0.353376 -0.873002 0.01226 -0.340808 -0.962679 0.0288328 -0.387396 
-0.666229 -0.0794685 -0.275418 -0.663164 -0.0628017 -0.353907 -0.708331 0.0129984 -0.308646 
-0.623733 -0.116019 -0.257584 -1.03375 -0.154519 -0.374775 -0.451859 -0.00806722 -0.155628 
-0.502693 -0.0474393 -0.211284 -0.776806 0.0059449 -0.513638 -0.676181 -0.0486243 -0.283424 
-0.70672 0.133148 -0.303118 -0.764102 0.014919 -0.303114 -0.905459 -0.0640102 -0.579131 
-0.907883 -0.115183 -0.382722 -0.944443 -0.269309 -0.436824 -0.742062 -0.0795256 -0.329167 
-0.689569 -0.0039534 -0.287357 -0.751734 -0.0639455 -0.323752 -0.852283 -0.0623434 -0.351116 
-0.744806 -0.0995215 -0.475796 -0.637328 -0.0103587 -0.264105 -0.698392 -0.103786 -0.283663 
-1.07736 0.11136 -0.364048 -0.673029 -0.0955928 -0.382656 -0.622516 0.012271 -0.266783 