# vtk DataFile Version 4.0
Generated by LIGGGHTS
ASCII
DATASET POLYDATA
POINTS 836 float
-0.47298 -0.00220105 -0.398603 -0.467595 -0.00122478 -0.397155 -0.477259 0.00734153 -0.397645 
-0.473899 -0.0176541 -0.394352 -0.475933 -0.0119343 -0.396345 -0.466244 0.000530103 -0.390315 
-0.44606 -0.015564 -0.383483 -0.469524 -0.0106002 -0.383471 -0.461401 0.000769872 -0.384959 
-0.471182 0.0105095 -0.384011 -0.480111 0.0196705 -0.384669 -0.444787 -0.00749671 -0.38012 
-0.468159 0.0119509 -0.380776 -0.467023 -0.00681059 -0.378141 -0.462028 0.00644658 -0.376508 
-0.472354 0.0227331 -0.378645 -0.471594 -0.00835679 -0.374536 -0.467338 0.0283421 -0.373029 
-0.447557 0.00581755 -0.369893 -0.452908 0.00871019 -0.370334 -0.465373 -0.0103897 -0.366144 
-0.464454 -0.00578166 -0.367718 -0.42899 0.0022923 -0.367961 -0.453386 0.00589624 -0.366867 
-0.461186 0.00913782 -0.364089 -0.440019 0.00856753 -0.363541 -0.426322 0.0123251 -0.35387 
-0.445314 -0.0101173 -0.351074 -0.443651 -0.0128705 -0.349511 -0.432449 0.00645398 -0.34706 
-0.443318 0.00680298 -0.347268 -0.429872 -0.0173515 -0.344235 -0.445428 0.00572726 -0.344654 
-0.428014 0.00606345 -0.346225 -0.442642 0.0196907 -0.345527 -0.434514 -0.0166004 -0.339441 
-0.426213 -0.0103192 -0.340284 -0.426526 0.00253944 -0.342009 -0.429615 -0.0149876 -0.338897 
-0.433776 0.00266207 -0.339426 -0.428758 -0.0180911 -0.334107 -0.42562 -0.0111888 -0.332745 
-0.418153 -0.0258604 -0.328861 -0.425579 -0.00463123 -0.326082 -0.41139 -0.0153372 -0.324003 
-0.403289 -0.0145122 -0.322707 -0.419248 -0.00395673 -0.323784 -0.41862 -0.0126366 -0.318648 
-0.422254 -0.0100397 -0.319717 -0.40939 -0.00882343 -0.318455 -0.418027 0.0129633 -0.319659 
-0.426267 -0.0185685 -0.317425 -0.428257 -0.0109385 -0.317497 -0.417145 -0.00962059 -0.316092 
-0.423145 -0.0382817 -0.311923 -0.413194 -0.0123648 -0.312019 -0.413085 0.00113272 -0.311385 
-0.405237 0.00287403 -0.310844 -0.406108 0.0164864 -0.313049 -0.40855 0.0241654 -0.311095 
-0.406728 -0.0160269 -0.310196 -0.412446 -0.00798522 -0.30794 -0.409001 -0.00434518 -0.308439 
-0.402469 0.00771957 -0.310312 -0.406766 0.0351798 -0.308513 -0.396615 0.0138418 -0.306277 
-0.398192 0.0164352 -0.306337 -0.406838 -0.0160647 -0.303155 -0.40537 -0.00990259 -0.303122 
-0.397049 0.00129148 -0.300201 -0.396298 0.00924399 -0.303323 -0.399872 -0.00565762 -0.296598 
-0.402523 0.00540127 -0.298831 -0.397764 0.0076779 -0.296919 -0.394562 0.0150899 -0.298784 
-0.400324 -0.0115232 -0.292971 -0.405899 0.0132783 -0.296364 -0.3946 0.00239804 -0.290019 
-0.378461 0.00293544 -0.29138 -0.382729 -0.0175079 -0.28668 -0.384525 -0.00796416 -0.28846 
-0.382937 -0.00455081 -0.286157 -0.383162 0.000344638 -0.28842 -0.379697 0.00839874 -0.287232 
-0.370927 0.00965521 -0.286373 -0.384774 0.010631 -0.287759 -0.387847 -0.0178345 -0.28445 
-0.382545 -0.0123248 -0.285293 -0.378267 -0.011445 -0.284167 -0.375681 0.00767738 -0.284358 
-0.388183 -0.0355495 -0.27962 -0.382629 -0.0268395 -0.280219 -0.379908 -0.0202476 -0.279765 
-0.384944 -0.0126513 -0.278653 -0.380553 -0.00559215 -0.279565 -0.368206 -0.000674886 -0.278607 
-0.388091 0.0017456 -0.279369 -0.373762 0.00181566 -0.280384 -0.369138 0.000351687 -0.281917 
-0.377764 0.00469551 -0.282025 -0.372802 0.00539423 -0.278729 -0.386297 0.0125973 -0.281553 
-0.380148 -0.0113789 -0.278308 -0.375947 -0.00757255 -0.277976 -0.398063 0.000180726 -0.278816 
-0.371217 0.00226748 -0.275277 -0.384096 0.00653554 -0.278061 -0.381003 0.0181286 -0.275993 
-0.377142 -0.00813617 -0.272208 -0.373009 -0.00441135 -0.273846 -0.365467 -0.00100131 -0.271906 
-0.370135 0.00131081 -0.271413 -0.364465 0.00322071 -0.274158 -0.37379 0.00872144 -0.273791 
-0.368471 0.00798978 -0.272962 -0.369858 0.0109251 -0.274423 -0.377304 0.000542313 -0.270317 
-0.36458 0.000846984 -0.269451 -0.361896 0.0045133 -0.268387 -0.384859 0.00866047 -0.268278 
-0.347724 0.00871943 -0.269443 -0.361709 0.0113605 -0.269304 -0.372242 0.0147286 -0.271247 
-0.366478 -0.0115429 -0.26614 -0.365336 0.00793699 -0.267174 -0.37149 0.0189286 -0.267644 
-0.374164 -0.0338265 -0.262372 -0.366521 -0.0231733 -0.261514 -0.359917 -0.019048 -0.262525 
-0.354731 -0.00775659 -0.263194 -0.357366 -0.00483602 -0.260792 -0.353105 0.00291041 -0.261388 
-0.348365 0.000610594 -0.260705 -0.359678 0.00667029 -0.263108 -0.364477 0.0110768 -0.262746 
-0.348192 -0.0189141 -0.25709 -0.358265 -0.0109714 -0.260161 -0.366034 -0.00831151 -0.258487 
-0.356349 -0.00810133 -0.25682 -0.353879 -0.00552926 -0.258031 -0.350923 -0.00435065 -0.258599 
-0.353779 0.00618733 -0.257453 -0.353584 0.00985277 -0.259917 -0.361172 0.0202741 -0.259554 
-0.362937 0.0260346 -0.259834 -0.350229 -0.0159929 -0.254964 -0.352683 -0.011907 -0.256308 
-0.350991 -0.00723588 -0.255165 -0.348619 0.000395919 -0.254639 -0.352165 0.0103734 -0.255832 
-0.352741 0.0202805 -0.25567 -0.345913 -0.0124932 -0.252496 -0.342192 -0.00614911 -0.251608 
-0.344653 -0.00222104 -0.252668 -0.343727 0.00271858 -0.251571 -0.338081 0.0050594 -0.2496 
-0.338688 0.00890159 -0.24967 -0.342313 0.0168579 -0.250369 -0.334686 -0.0108121 -0.246035 
-0.337009 -0.00818083 -0.248477 -0.336219 -0.00510553 -0.248197 -0.337413 0.000771021 -0.248398 
-0.338989 0.0133269 -0.248363 -0.332108 0.0112203 -0.245991 -0.34369 0.0292293 -0.247567 
-0.351645 0.0407454 -0.247197 -0.33334 -0.00328953 -0.245733 -0.32759 0.0147386 -0.243299 
-0.329547 0.0176738 -0.243673 -0.32551 -0.0150593 -0.242113 -0.321942 -0.0156103 -0.240555 
-0.316233 -0.0107312 -0.23885 -0.318452 -0.00649274 -0.239004 -0.317081 -0.00273448 -0.239749 
-0.321185 0.0020112 -0.24145 -0.319584 0.00654809 -0.240487 -0.321808 0.0119816 -0.239995 
-0.317197 0.0124724 -0.239108 -0.326553 -0.0324812 -0.237011 -0.313412 -0.0155531 -0.236909 
-0.317252 0.00329024 -0.238584 -0.310992 0.00748912 -0.23681 -0.307197 0.00718085 -0.23523 
-0.313888 0.0113207 -0.237788 -0.315697 0.0149329 -0.238071 -0.316508 0.0215031 -0.23604 
-0.32763 0.0362431 -0.237334 -0.310534 -0.019801 -0.235151 -0.304472 -0.00901021 -0.23411 
-0.306021 -0.00365828 -0.235049 -0.303706 -0.00529936 -0.234009 -0.298908 -0.00242568 -0.23209 
-0.303593 0.00150989 -0.234067 -0.300899 0.00346834 -0.231719 -0.304428 0.0103127 -0.232779 
-0.309865 0.0109523 -0.235032 -0.304991 0.0145029 -0.232688 -0.311616 0.0213034 -0.234036 
-0.306754 0.0222771 -0.231818 -0.313253 0.0250178 -0.235096 -0.311754 0.0314198 -0.232503 
-0.32648 -0.0463513 -0.231861 -0.311911 -0.0360674 -0.229974 -0.300933 -0.00917309 -0.231515 
-0.294827 -0.00847406 -0.229023 -0.296788 -0.00562106 -0.231085 -0.293685 0.000587869 -0.229949 
-0.297072 0.00532048 -0.231076 -0.300986 0.00933335 -0.230549 -0.29997 0.0169506 -0.230024 
-0.325603 0.0181737 -0.231718 -0.301197 0.0238897 -0.230284 -0.306521 0.0279832 -0.230432 
-0.321027 0.0425967 -0.230549 -0.300041 -0.0367419 -0.225932 -0.298141 -0.0301599 -0.227456 
-0.285942 -0.0181178 -0.225189 -0.282128 0.0054753 -0.224764 -0.29287 0.00973488 -0.226954 
-0.31066 0.0160101 -0.226495 -0.290884 0.0155583 -0.227607 -0.301299 0.034926 -0.227121 
-0.284363 -0.014152 -0.224006 -0.279682 0.0122062 -0.223355 -0.285337 0.0248179 -0.222514 
-0.269294 -0.0116622 -0.21904 -0.268804 -0.00657494 -0.218053 -0.268212 -0.00213733 -0.219163 
-0.264516 0.00819666 -0.217254 -0.276591 0.0217394 -0.220502 -0.269598 0.0217484 -0.217643 
-0.285433 -0.0415768 -0.216905 -0.271926 -0.0304298 -0.216479 -0.266494 -0.0146194 -0.21752 
-0.265994 -0.0112797 -0.217256 -0.25826 -0.010274 -0.214571 -0.265796 -0.00155411 -0.217123 
-0.260307 0.00792608 -0.215489 -0.266263 0.0202377 -0.216492 -0.253189 -0.00781401 -0.211503 
-0.248856 -0.00781991 -0.210732 -0.255745 0.00116982 -0.213874 -0.254066 0.0116237 -0.211606 
-0.253222 0.0166638 -0.210487 -0.258748 0.0247559 -0.212637 -0.282276 -0.0557289 -0.209322 
-0.252228 -0.0260925 -0.209503 -0.251734 -0.0222316 -0.21013 -0.24739 -0.0199882 -0.208576 
-0.241026 -0.0151051 -0.206757 -0.245266 -0.0075665 -0.20812 -0.241788 8.54046e-05 -0.208001 
-0.242413 0.00335467 -0.208144 -0.239072 0.000513419 -0.206838 -0.246948 0.00402462 -0.208942 
-0.250159 0.00770745 -0.210144 -0.251737 0.0119159 -0.207468 -0.249578 0.0195247 -0.208557 
-0.245948 0.021053 -0.207883 -0.250635 0.0274852 -0.208523 -0.24668 0.0257541 -0.207358 
-0.253884 0.0300958 -0.208064 -0.257634 0.0310574 -0.210464 -0.262329 0.0370051 -0.209645 
-0.245587 -0.0228059 -0.206338 -0.237733 -0.0235942 -0.203953 -0.23708 -0.0205449 -0.204287 
-0.234733 -0.0172262 -0.203931 -0.241216 -0.0108406 -0.206181 -0.237015 -0.0134399 -0.20412 
-0.236606 -0.00845688 -0.204317 -0.237663 0.00355622 -0.206118 -0.236494 0.000599028 -0.20533 
-0.235 0.00435299 -0.204983 -0.232215 0.00438769 -0.203827 -0.237985 0.00805402 -0.206106 
-0.235119 0.00732957 -0.204404 -0.235925 0.0132481 -0.204803 -0.233243 0.0122123 -0.203802 
-0.239174 0.0192015 -0.205346 -0.24196 0.0232099 -0.205928 -0.252751 0.0406271 -0.205472 
-0.258039 0.0449731 -0.2058 -0.283498 0.0604434 -0.206576 -0.235329 -0.0259551 -0.202413 
-0.229439 -0.00915394 -0.202292 -0.231094 -0.0067872 -0.203229 -0.230313 -0.0021567 -0.203183 
-0.225514 0.00279064 -0.201005 -0.23152 0.00875153 -0.202307 -0.228945 0.0122463 -0.201964 
-0.230213 0.0164476 -0.200854 -0.233606 0.0181977 -0.203149 -0.238184 0.0237923 -0.203181 
-0.222354 -0.013436 -0.197878 -0.22007 -0.00944434 -0.198375 -0.220749 -0.00595053 -0.198634 
-0.220213 -0.00104788 -0.197783 -0.222353 0.0228416 -0.19676 -0.224426 0.0275641 -0.196478 
-0.238087 0.0434858 -0.198433 -0.217975 -0.0362784 -0.192865 -0.218824 -0.0272345 -0.195278 
-0.218373 -0.0228324 -0.194954 -0.212809 -0.023079 -0.193687 -0.214644 -0.0202227 -0.195054 
-0.215635 -0.0160041 -0.194828 -0.20921 -0.0123281 -0.193552 -0.216126 -0.00988678 -0.195616 
-0.233216 0.00199431 -0.195901 -0.209188 0.00220864 -0.193048 -0.206343 0.00532821 -0.192925 
-0.2161 0.0082923 -0.195884 -0.210113 0.00794799 -0.193392 -0.208125 0.0137161 -0.193008 
-0.222391 0.0363144 -0.194673 -0.233836 0.0525857 -0.192763 -0.221992 -0.0301845 -0.189855 
[...]
POINT_DATA 836
FIELD FieldData 7
id 1 836 int
123 372 277 102 117 164 209 290 287 
199 258 185 278 218 206 151 205 223 
259 131 275 211 262 129 210 152 292 
260 314 243 299 282 271 155 300 119 
252 239 302 342 214 293 149 219 295 
220 279 286 189 180 208 320 348 115 
337 355 190 236 309 325 301 193 256 
289 272 184 288 221 212 207 318 315 
266 323 311 413 319 324 172 249 106 
217 251 254 197 160 365 317 313 250 
297 338 312 403 229 107 179 284 169 
341 310 242 350 255 396 333 308 264 
379 280 225 269 235 370 261 352 307 
346 168 267 213 345 380 253 240 332 
381 405 321 425 305 344 283 306 294 
359 373 406 391 378 247 322 389 356 
404 237 303 316 330 383 504 336 285 
241 354 334 411 401 329 376 226 331 
384 173 463 339 291 438 392 328 335 
248 393 441 296 402 367 326 456 371 
395 377 426 414 298 419 439 386 358 
388 273 415 374 394 481 468 429 369 
407 362 448 398 535 432 409 349 400 
447 424 421 457 423 496 510 360 437 
452 276 382 584 410 490 443 442 446 
385 470 428 473 399 475 523 467 195 
462 387 465 513 540 343 472 427 471 
357 502 618 464 460 430 351 434 451 
478 500 469 458 550 431 390 459 397 
483 449 494 484 418 363 476 408 422 
433 466 554 375 340 353 416 440 453 
480 525 461 436 477 568 479 435 412 
364 368 450 509 417 533 455 492 505 
599 537 573 526 501 518 508 515 543 
522 582 482 561 495 538 558 507 530 
541 596 560 546 361 420 366 444 566 
583 611 445 630 499 529 772 603 493 
498 514 454 556 548 572 578 489 553 
497 512 545 531 503 645 488 491 551 
528 591 524 574 549 615 520 581 547 
487 627 511 564 559 576 619 563 594 
589 542 506 588 474 517 614 565 527 
604 656 532 562 557 521 609 534 586 
620 516 676 519 486 577 485 555 610 
661 552 658 606 598 719 602 682 711 
650 587 571 580 654 698 633 655 635 
624 675 628 567 595 674 570 612 617 
621 625 644 673 575 629 590 692 608 
647 677 613 742 643 616 640 632 680 
607 631 585 671 536 600 734 702 736 
662 666 669 634 707 636 544 668 683 
641 685 637 592 712 699 715 721 691 
697 539 725 681 597 653 648 638 657 
649 642 716 700 569 652 593 688 263 
622 639 694 744 660 665 775 720 651 
717 626 601 646 739 727 678 713 670 
730 684 679 735 755 701 690 704 703 
672 623 667 714 664 663 747 696 718 
753 708 741 710 732 724 686 733 722 
709 750 748 695 723 738 782 776 706 
803 756 771 687 737 728 762 759 784 
579 795 729 788 794 853 740 726 805 
689 757 752 790 751 773 693 764 766 
789 780 839 785 787 774 823 746 813 
763 760 754 768 743 783 781 765 705 
827 792 769 797 808 1030 1023 778 846 
761 812 1035 791 1024 811 777 822 845 
801 840 835 866 796 852 828 793 856 
758 809 817 799 826 851 767 731 770 
798 879 859 834 831 848 874 800 810 
815 804 749 830 838 821 786 806 836 
842 779 870 841 807 829 855 847 816 
844 824 843 862 880 875 868 833 863 
872 871 894 818 881 864 825 820 819 
849 882 883 878 802 659 861 865 887 
814 858 876 860 854 837 832 877 873 
889 884 892 867 888 857 891 850 890 
885 869 886 893 745 900 902 905 897 
898 896 906 907 899 904 903 901 895 
911 914 917 605 919 915 916 913 920 
909 910 918 908 924 912 933 930 923 
927 931 928 925 922 926 929 932 921 
944 945 940 935 943 946 936 938 941 
939 937 942 934 957 953 948 954 951 
956 947 955 958 949 950 952 966 968 
961 963 965 962 969 971 970 959 964 
978 967 960 976 972 983 975 981 980 
979 977 974 982 973 992 986 993 991 
987 989 988 995 1009 984 990 996 994 
1004 1007 985 1001 1006 1008 1003 998 1005 
997 1002 999 1019 1013 1014 1020 1021 1000 
1017 1011 1016 1022 1018 1015 1012 1010 1031 
1026 1027 1029 1033 1025 1028 1034 1032 
type 1 836 int
1 1 1 1 1 1 1 1 1 
1 1 1 1 1 1 1 1 1 
1 1 1 1 1 1 1 1 1 
1 1 1 1 1 1 1 1 1 
1 1 1 1 1 1 1 1 1 
1 1 1 1 1 1 1 1 1 
1 1 1 1 1 1 1 1 1 
1 1 1 1 1 1 1 1 1 
1 1 1 1 1 1 1 1 1 
1 1 1 1 1 1 1 1 1 
1 1 1 1 1 1 1 1 1 
1 1 1 1 1 1 1 1 1 
1 1 1 1 1 1 1 1 1 
1 1 1 1 1 1 1 1 1 
1 1 1 1 1 1 1 1 1 
1 1 1 1 1 1 1 1 1 
1 1 1 1 1 1 1 1 1 
1 1 1 1 1 1 1 1 1 
1 1 1 1 1 1 1 1 1 
1 1 1 1 1 1 1 1 1 
1 1 1 1 1 1 1 1 1 
1 1 1 1 1 1 1 1 1 
1 1 1 1 1 1 1 1 1 
1 1 1 1 1 1 1 1 1 
1 1 1 1 1 1 1 1 1 
1 1 1 1 1 1 1 1 1 
1 1 1 1 1 1 1 1 1 
1 1 1 1 1 1 1 1 1 
1 1 1 1 1 1 1 1 1 
1 1 1 1 1 1 1 1 1 
1 1 1 1 1 1 1 1 1 
1 1 1 1 1 1 1 1 1 
1 1 1 1 1 1 1 1 1 
1 1 1 1 1 1 1 1 1 
1 1 1 1 1 1 1 1 1 
1 1 1 1 1 1 1 1 1 
1 1 1 1 1 1 1 1 1 
1 1 1 1 1 1 1 1 1 
1 1 1 1 1 1 1 1 1 
1 1 1 1 1 1 1 1 1 
1 1 1 1 1 1 1 1 1 
1 1 1 1 1 1 1 1 1 
1 1 1 1 1 1 1 1 1 
1 1 1 1 1 1 1 1 1 
1 1 1 1 1 1 1 1 1 
1 1 1 1 1 1 1 1 1 
1 1 1 1 1 1 1 1 1 
1 1 1 1 1 1 1 1 1 
1 1 1 1 1 1 1 1 1 
1 1 1 1 1 1 1 1 1 
1 1 1 1 1 1 1 1 1 
1 1 1 1 1 1 1 1 1 
1 1 1 1 1 1 1 1 1 
1 1 1 1 1 1 1 1 1 
1 1 1 1 1 1 1 1 1 
1 1 1 1 1 1 1 1 1 
1 1 1 1 1 1 1 1 1 
1 1 1 1 1 1 1 1 1 
1 1 1 1 1 1 1 1 1 
1 1 1 1 1 1 1 1 1 
1 1 1 1 1 1 1 1 1 
1 1 1 1 1 1 1 1 1 
1 1 1 1 1 1 1 1 1 
1 1 1 1 1 1 1 1 1 
1 1 1 1 1 1 1 1 1 
1 1 1 1 1 1 1 1 1 
1 1 1 1 1 1 1 1 1 
1 1 1 1 1 1 1 1 1 
1 1 1 1 1 1 1 1 1 
1 1 1 1 1 1 1 1 1 
1 1 1 1 1 1 1 1 1 
1 1 1 1 1 1 1 1 1 
1 1 1 1 1 1 1 1 1 
1 1 1 1 1 1 1 1 1 
1 1 1 1 1 1 1 1 1 
1 1 1 1 1 1 1 1 1 
1 1 1 1 1 1 1 1 1 
1 1 1 1 1 1 1 1 1 
1 1 1 1 1 1 1 1 1 
1 1 1 1 1 1 1 1 1 
1 1 1 1 1 1 1 1 1 
1 1 1 1 1 1 1 1 1 
1 1 1 1 1 1 1 1 1 
1 1 1 1 1 1 1 1 1 
1 1 1 1 1 1 1 1 1 
1 1 1 1 1 1 1 1 1 
1 1 1 1 1 1 1 1 1 
1 1 1 1 1 1 1 1 1 
1 1 1 1 1 1 1 1 1 
1 1 1 1 1 1 1 1 1 
1 1 1 1 1 1 1 1 1 
1 1 1 1 1 1 1 1 1 
1 1 1 1 1 1 1 1 
i 3 836 int
0 0 0 0 0 0 0 0 0 
0 0 0 0 0 0 0 0 0 
0 0 0 0 0 0 0 0 0 
0 0 0 0 0 0 0 0 0 
0 0 0 0 0 0 0 0 0 
0 0 0 0 0 0 0 0 0 
0 0 0 0 0 0 0 0 0 
0 0 0 0 0 0 0 0 0 
0 0 0 0 0 0 0 0 0 
0 0 0 0 0 0 0 0 0 
0 0 0 0 0 0 0 0 0 
0 0 0 0 0 0 0 0 0 
0 0 0 0 0 0 0 0 0 
0 0 0 0 0 0 0 0 0 
0 0 0 0 0 0 0 0 0 
0 0 0 0 0 0 0 0 0 
0 0 0 0 0 0 0 0 0 
0 0 0 0 0 0 0 0 0 
0 0 0 0 0 0 0 0 0 
0 0 0 0 0 0 0 0 0 
0 0 0 0 0 0 0 0 0 
0 0 0 0 0 0 0 0 0 
0 0 0 0 0 0 0 0 0 
0 0 0 0 0 0 0 0 0 
0 0 0 0 0 0 0 0 0 
0 0 0 0 0 0 0 0 0 
0 0 0 0 0 0 0 0 0 
0 0 0 0 0 0 0 0 0 
0 0 0 0 0 0 0 0 0 
0 0 0 0 0 0 0 0 0 
0 0 0 0 0 0 0 0 0 
0 0 0 0 0 0 0 0 0 
0 0 0 0 0 0 0 0 0 
0 0 0 0 0 0 0 0 0 
0 0 0 0 0 0 0 0 0 
0 0 0 0 0 0 0 0 0 
0 0 0 0 0 0 0 0 0 
0 0 0 0 0 0 0 0 0 
0 0 0 0 0 0 0 0 0 
0 0 0 0 0 0 0 0 0 
0 0 0 0 0 0 0 0 0 
0 0 0 0 0 0 0 0 0 
0 0 0 0 0 0 0 0 0 
0 0 0 0 0 0 0 0 0 
0 0 0 0 0 0 0 0 0 
0 0 0 0 0 0 0 0 0 
0 0 0 0 0 0 0 0 0 
0 0 0 0 0 0 0 0 0 
0 0 0 0 0 0 0 0 0 
0 0 0 0 0 0 0 0 0 
0 0 0 0 0 0 0 0 0 
0 0 0 0 0 0 0 0 0 
0 0 0 0 0 0 0 0 0 
0 0 0 0 0 0 0 0 0 
0 0 0 0 0 0 0 0 0 
0 0 0 0 0 0 0 0 0 
0 0 0 0 0 0 0 0 0 
0 0 0 0 0 0 0 0 0 
0 0 0 0 0 0 0 0 0 
0 0 0 0 0 0 0 0 0 
0 0 0 0 0 0 0 0 0 
0 0 0 0 0 0 0 0 0 
0 0 0 0 0 0 0 0 0 
0 0 0 0 0 0 0 0 0 
0 0 0 0 0 0 0 0 0 
0 0 0 0 0 0 0 0 0 
0 0 0 0 0 0 0 0 0 
0 0 0 0 0 0 0 0 0 
0 0 0 0 0 0 0 0 0 
0 0 0 0 0 0 0 0 0 
0 0 0 0 0 0 0 0 0 
0 0 0 0 0 0 0 0 0 
0 0 0 0 0 0 0 0 0 
0 0 0 0 0 0 0 0 0 
0 0 0 0 0 0 0 0 0 
0 0 0 0 0 0 0 0 0 
0 0 0 0 0 0 0 0 0 
0 0 0 0 0 0 0 0 0 
0 0 0 0 0 0 0 0 0 
0 0 0 0 0 0 0 0 0 
0 0 0 0 0 0 0 0 0 
0 0 0 0 0 0 0 0 0 
0 0 0 0 0 0 0 0 0 
0 0 0 0 0 0 0 0 0 
0 0 0 0 0 0 0 0 0 
0 0 0 0 0 0 0 0 0 
0 0 0 0 0 0 0 0 0 
0 0 0 0 0 0 0 0 0 
0 0 0 0 0 0 0 0 0 
0 0 0 0 0 0 0 0 0 
0 0 0 0 0 0 0 0 0 
0 0 0 0 0 0 0 0 0 
0 0 0 0 0 0 0 0 0 
0 0 0 0 0 0 0 0 0 
0 0 0 0 0 0 0 0 0 
0 0 0 0 0 0 0 0 0 
0 0 0 0 0 0 0 0 0 
0 0 0 0 0 0 0 0 0 
0 0 0 0 0 0 0 0 0 
0 0 0 0 0 0 0 0 0 
0 0 0 0 0 0 0 0 0 
0 0 0 0 0 0 0 0 0 
0 0 0 0 0 0 0 0 0 
0 0 0 0 0 0 0 0 0 
0 0 0 0 0 0 0 0 0 
0 0 0 0 0 0 0 0 0 
0 0 0 0 0 0 0 0 0 
0 0 0 0 0 0 0 0 0 
0 0 0 0 0 0 0 0 0 
0 0 0 0 0 0 0 0 0 
0 0 0 0 0 0 0 0 0 
0 0 0 0 0 0 0 0 0 
0 0 0 0 0 0 0 0 0 
0 0 0 0 0 0 0 0 0 
0 0 0 0 0 0 0 0 0 
0 0 0 0 0 0 0 0 0 
0 0 0 0 0 0 0 0 0 
0 0 0 0 0 0 0 0 0 
0 0 0 0 0 0 0 0 0 
0 0 0 0 0 0 0 0 0 
0 0 0 0 0 0 0 0 0 
0 0 0 0 0 0 0 0 0 
0 0 0 0 0 0 0 0 0 
0 0 0 0 0 0 0 0 0 
0 0 0 0 0 0 0 0 0 
0 0 0 0 0 0 0 0 0 
0 0 0 0 0 0 0 0 0 
0 0 0 0 0 0 0 0 0 
0 0 0 0 0 0 0 0 0 
0 0 0 0 0 0 0 0 0 
0 0 0 0 0 0 0 0 0 
0 0 0 0 0 0 0 0 0 
0 0 0 0 0 0 0 0 0 
0 0 0 0 0 0 0 0 0 
0 0 0 0 0 0 0 0 0 
0 0 0 0 0 0 0 0 0 
0 0 0 0 0 0 0 0 0 
0 0 0 0 0 0 0 0 0 
0 0 0 0 0 0 0 0 0 
0 0 0 0 0 0 0 0 0 
0 0 0 0 0 0 0 0 0 
0 0 0 0 0 0 0 0 0 
0 0 0 0 0 0 0 0 0 
0 0 0 0 0 0 0 0 0 
0 0 0 0 0 0 0 0 0 
0 0 0 0 0 0 0 0 0 
0 0 0 0 0 0 0 0 0 
0 0 0 0 0 0 0 0 0 
0 0 0 0 0 0 0 0 0 
0 0 0 0 0 0 0 0 0 
0 0 0 0 0 0 0 0 0 
0 0 0 0 0 0 0 0 0 
0 0 0 0 0 0 0 0 0 
0 0 0 0 0 0 0 0 0 
0 0 0 0 0 0 0 0 0 
0 0 0 0 0 0 0 0 0 
0 0 0 0 0 0 0 0 0 
0 0 0 0 0 0 0 0 0 
0 0 0 0 0 0 0 0 0 
0 0 0 0 0 0 0 0 0 
0 0 0 0 0 0 0 0 0 
0 0 0 0 0 0 0 0 0 
0 0 0 0 0 0 0 0 0 
0 0 0 0 0 0 0 0 0 
0 0 0 0 0 0 0 0 0 
0 0 0 0 0 0 0 0 0 
0 0 0 0 0 0 0 0 0 
0 0 0 0 0 0 0 0 0 
0 0 0 0 0 0 0 0 0 
0 0 0 0 0 0 0 0 0 
0 0 0 0 0 0 0 0 0 
0 0 0 0 0 0 0 0 0 
0 0 0 0 0 0 0 0 0 
0 0 0 0 0 0 0 0 0 
0 0 0 0 0 0 0 0 0 
0 0 0 0 0 0 0 0 0 
0 0 0 0 0 0 0 0 0 
0 0 0 0 0 0 0 0 0 
0 0 0 0 0 0 0 0 0 
0 0 0 0 0 0 0 0 0 
0 0 0 0 0 0 0 0 0 
0 0 0 0 0 0 0 0 0 
0 0 0 0 0 0 0 0 0 
0 0 0 0 0 0 0 0 0 
0 0 0 0 0 0 0 0 0 
0 0 0 0 0 0 0 0 0 
0 0 0 0 0 0 0 0 0 
0 0 0 0 0 0 0 0 0 
0 0 0 0 0 0 0 0 0 
0 0 0 0 0 0 0 0 0 
0 0 0 0 0 0 0 0 0 
0 0 0 0 0 0 0 0 0 
0 0 0 0 0 0 0 0 0 
0 0 0 0 0 0 0 0 0 
0 0 0 0 0 0 0 0 0 
0 0 0 0 0 0 0 0 0 
0 0 0 0 0 0 0 0 0 
0 0 0 0 0 0 0 0 0 
0 0 0 0 0 0 0 0 0 
0 0 0 0 0 0 0 0 0 
0 0 0 0 0 0 0 0 0 
0 0 0 0 0 0 0 0 0 
0 0 0 0 0 0 0 0 0 
0 0 0 0 0 0 0 0 0 
0 0 0 0 0 0 0 0 0 
0 0 0 0 0 0 0 0 0 
0 0 0 0 0 0 0 0 0 
0 0 0 0 0 0 0 0 0 
0 0 0 0 0 0 0 0 0 
0 0 0 0 0 0 0 0 0 
0 0 0 0 0 0 0 0 0 
0 0 0 0 0 0 0 0 0 
0 0 0 0 0 0 0 0 0 
0 0 0 0 0 0 0 0 0 
0 0 0 0 0 0 0 0 0 
0 0 0 0 0 0 0 0 0 
0 0 0 0 0 0 0 0 0 
0 0 0 0 0 0 0 0 0 
0 0 0 0 0 0 0 0 0 
0 0 0 0 0 0 0 0 0 
0 0 0 0 0 0 0 0 0 
0 0 0 0 0 0 0 0 0 
0 0 0 0 0 0 0 0 0 
0 0 0 0 0 0 0 0 0 
0 0 0 0 0 0 0 0 0 
0 0 0 0 0 0 0 0 0 
0 0 0 0 0 0 0 0 0 
0 0 0 0 0 0 0 0 0 
0 0 0 0 0 0 0 0 0 
0 0 0 0 0 0 0 0 0 
0 0 0 0 0 0 0 0 0 
0 0 0 0 0 0 0 0 0 
0 0 0 0 0 0 0 0 0 
0 0 0 0 0 0 0 0 0 
0 0 0 0 0 0 0 0 0 
0 0 0 0 0 0 0 0 0 
0 0 0 0 0 0 0 0 0 
0 0 0 0 0 0 0 0 0 
0 0 0 0 0 0 0 0 0 
0 0 0 0 0 0 0 0 0 
0 0 0 0 0 0 0 0 0 
0 0 0 0 0 0 0 0 0 
0 0 0 0 0 0 0 0 0 
0 0 0 0 0 0 0 0 0 
0 0 0 0 0 0 0 0 0 
0 0 0 0 0 0 0 0 0 
0 0 0 0 0 0 0 0 0 
0 0 0 0 0 0 0 0 0 
0 0 0 0 0 0 0 0 0 
0 0 0 0 0 0 0 0 0 
0 0 0 0 0 0 0 0 0 
0 0 0 0 0 0 0 0 0 
0 0 0 0 0 0 0 0 0 
0 0 0 0 0 0 0 0 0 
0 0 0 0 0 0 0 0 0 
0 0 0 0 0 0 0 0 0 
0 0 0 0 0 0 0 0 0 
0 0 0 0 0 0 0 0 0 
0 0 0 0 0 0 0 0 0 
0 0 0 0 0 0 0 0 0 
0 0 0 0 0 0 0 0 0 
0 0 0 0 0 0 0 0 0 
0 0 0 0 0 0 0 0 0 
0 0 0 0 0 0 0 0 0 
0 0 0 0 0 0 0 0 0 
0 0 0 0 0 0 0 0 0 
0 0 0 0 0 0 0 0 0 
0 0 0 0 0 0 0 0 0 
0 0 0 0 0 0 0 0 0 
0 0 0 0 0 0 0 0 0 
0 0 0 0 0 0 0 0 0 
0 0 0 0 0 0 0 0 0 
0 0 0 0 0 0 0 0 0 
0 0 0 0 0 0 0 0 0 
0 0 0 0 0 0 0 0 0 
0 0 0 0 0 0 0 0 0 
0 0 0 0 0 0 0 0 0 
0 0 0 0 0 0 0 0 0 
0 0 0 0 0 0 
v 3 836 double
-1.08033 0.0265767 -1.80929 -1.06996 -0.0497087 -1.79589 -1.16487 -0.0278289 -1.84007 
-1.13578 -0.0353817 -1.81283 -1.11276 -0.0174279 -1.80697 -1.0491 -0.061281 -1.75576 
-0.904145 -0.0864301 -1.70643 -1.10472 0.182418 -1.76254 -1.05512 0.139585 -1.74473 
-1.12687 -0.00547431 -1.73115 -1.2164 -0.134221 -1.79091 -0.914312 -0.0358974 -1.68906 
-1.19539 -0.0596812 -1.7595 -1.15837 0.0255994 -1.70724 -1.06454 -0.0534303 -1.66225 
-1.18598 0.0133406 -1.72786 -1.20847 0.100333 -1.70605 -1.14454 -0.0502975 -1.70536 
-0.988315 -0.0585331 -1.64685 -0.994845 0.0570758 -1.76808 -1.21534 0.0872638 -1.65118 
-1.10167 0.0688633 -1.60496 -0.922339 -0.0354127 -1.6992 -1.09646 0.108861 -1.6174 
-1.17791 -0.0979554 -1.60917 -0.999721 0.112045 -1.62208 -0.859968 -0.134624 -1.56236 
-1.10672 -0.0694735 -1.52854 -1.10149 -0.0704883 -1.51714 -0.960219 0.050049 -1.48517 
-1.14507 -0.146483 -1.53896 -0.963045 -0.0675668 -1.48747 -1.12307 -0.0114813 -1.46203 
-0.954143 0.0332181 -1.48577 -1.11947 -0.0587727 -1.5214 -1.11013 -0.0513517 -1.46313 
-0.966921 -0.0215957 -1.44597 -0.966315 -0.00813597 -1.45506 -1.0474 -0.0533278 -1.48735 
-1.09262 -0.139258 -1.48118 -1.08364 -0.0804219 -1.43779 -1.00002 -0.0294596 -1.38843 
-0.964282 -0.208926 -1.36442 -1.18535 0.015645 -1.45652 -1.0399 0.0239732 -1.43454 
-0.920937 -0.15804 -1.36108 -1.03822 -0.0725238 -1.34162 -1.11521 0.0940956 -1.42419 
-1.09408 0.0509809 -1.3188 -0.931525 -0.0507589 -1.27859 -1.09174 0.107324 -1.31779 
-1.185 0.181286 -1.36042 -1.22956 0.218808 -1.35157 -1.13028 0.0706817 -1.31756 
-1.05424 0.0128972 -1.28388 -1.0994 0.0609424 -1.29294 -1.07806 0.0159724 -1.24799 
-0.998607 -0.103271 -1.24447 -0.957441 0.00412971 -1.25691 -0.981793 -0.03774 -1.26114 
-1.0581 -0.260259 -1.24923 -1.1218 0.0593473 -1.22214 -1.09674 -0.187604 -1.24973 
-0.955503 -0.0809711 -1.23854 -0.933584 0.0654867 -1.22805 -0.918825 -0.0745457 -1.21875 
-0.903137 -0.0626823 -1.20729 -1.09636 -0.00644754 -1.18816 -1.02462 0.0728468 -1.1598 
-1.1057 -0.0822859 -1.20443 -0.917667 -0.0825723 -1.18634 -1.12261 0.112501 -1.14149 
-1.13785 -0.0769281 -1.17635 -1.10061 -0.0949063 -1.15204 -0.927815 -0.0557572 -1.13729 
-1.20211 0.11334 -1.13328 -1.25622 -0.111964 -1.19423 -1.09055 -0.10352 -1.05263 
-0.897172 0.0806651 -1.10105 -1.00141 -0.0479294 -1.10328 -0.937067 0.00432739 -1.03255 
-0.954853 0.0254883 -1.03802 -0.918801 0.0548237 -1.02818 -0.865269 0.0872996 -1.03086 
-0.760905 0.0124987 -1.07033 -0.990953 0.0356527 -1.04789 -1.07261 0.105866 -1.04302 
-0.935529 -0.0108325 -1.01914 -0.9209 0.0381036 -0.993283 -0.85201 0.0159211 -0.97238 
-1.02912 -0.0472918 -0.987688 -0.957283 0.00957379 -0.97588 -0.96573 -0.0302623 -0.956321 
-1.12827 0.0575809 -0.919678 -0.97751 0.0643312 -0.942609 -0.849407 -0.00249987 -0.945754 
-1.12071 0.123413 -0.995165 -0.935655 -0.0389307 -0.971735 -0.76392 0.0590105 -0.976267 
-0.925343 0.0662725 -0.981477 -0.901075 -0.0182385 -0.936829 -1.13862 -0.0137652 -1.01771 
-1.2095 0.0876381 -1.04901 -0.97657 0.060896 -0.966037 -1.33799 0.0333986 -1.14511 
-0.934124 -0.0763373 -0.902479 -1.06094 -0.0753973 -0.912114 -1.21787 -0.0518661 -0.988742 
-1.13238 0.0979883 -0.840782 -0.99625 0.0594318 -0.905649 -0.819169 0.0463987 -0.834463 
-0.968472 -0.0763169 -0.88234 -0.854114 0.0622507 -0.89249 -1.06876 -0.0317377 -0.932342 
-1.03471 -0.0487233 -0.93239 -1.04059 -0.0404223 -0.972841 -1.02909 -0.0378351 -0.837397 
-0.851679 0.0719661 -0.821161 -0.843059 0.0562793 -0.800052 -1.15438 -0.0265574 -0.811274 
-0.662324 -0.0890583 -0.972547 -0.937475 0.00207854 -0.982419 -1.13952 -0.0299208 -0.94196 
-1.08619 -0.00364078 -0.836111 -0.998687 0.0478707 -0.825361 -1.15658 -0.0380869 -0.886877 
-1.13236 0.123357 -0.868202 -1.13637 -0.0599097 -0.803294 -0.964021 0.000529939 -0.767351 
-0.942141 -0.0142409 -0.800476 -0.933044 -0.00705687 -0.723405 -0.815737 0.027157 -0.745335 
-0.815334 0.0221386 -0.798742 -1.00077 -0.0351216 -0.78948 -1.16801 -0.120018 -0.794223 
-0.69999 -0.0786664 -0.661931 -1.16109 0.0929289 -0.768838 -1.1395 0.122618 -0.741726 
-0.952726 -0.0377757 -0.688825 -1.05044 0.085255 -0.790316 -0.897555 -0.0365125 -0.700867 
-0.956867 -0.0410314 -0.554411 -0.905419 -0.00201857 -1.08418 -1.24496 -0.140129 -0.848386 
-1.24383 -0.262663 -0.898377 -1.0939 0.0603272 -0.665741 -1.1299 0.049224 -0.735093 
-1.0953 0.0345285 -0.67223 -0.971428 0.0440415 -0.632638 -1.21454 -0.204733 -0.704485 
-1.17575 -0.099752 -0.759457 -1.17191 0.136454 -0.680651 -1.02054 -0.000885128 -0.606164 
-0.95652 -0.0325731 -0.66861 -1.096 0.0350439 -0.60305 -1.02417 -0.0508494 -0.589747 
-1.03023 -0.0325939 -0.594825 -1.11442 -0.0942779 -0.657907 -1.05493 -0.0341769 -0.545337 
-1.04336 -0.0159088 -0.561133 -1.07785 0.00966422 -0.565444 -1.01823 0.00288026 -0.576932 
-1.00241 -0.0354454 -0.587504 -0.970163 -0.0787416 -0.515085 -1.16571 -0.288707 -0.733928 
-1.11682 0.0692231 -0.624313 -1.08108 0.0146906 -0.538332 -0.927618 -0.0602206 -0.498107 
-0.893744 0.057118 -0.446818 -1.09945 0.0804293 -0.478645 -1.09474 0.0645417 -0.444073 
-0.899115 0.070867 -0.428535 -0.885519 0.127528 -0.36492 -1.08135 0.147185 -0.461719 
-1.1497 0.152317 -0.474945 -0.923145 0.0137872 -0.388252 -1.04814 0.0807067 -0.436076 
-1.06682 -0.0150442 -0.449635 -1.04671 0.136552 -0.467438 -1.11095 -0.00688979 -0.464904 
-0.966505 -0.0498781 -0.399589 -1.011 -0.0744839 -0.429998 -0.914714 -0.0308613 -0.387536 
-1.07442 -0.100823 -0.458533 -1.04192 -0.00796818 -0.443393 -1.04138 -0.0325545 -0.441087 
-1.26359 0.0641379 -0.512845 -1.10513 0.0006702 -0.423041 -0.874916 -0.0853037 -0.358698 
-0.906633 -0.0230053 -0.379589 -0.899781 -0.040224 -0.356205 -0.946009 -0.057017 -0.396933 
-0.914227 0.038499 -0.382837 -0.912635 0.0310575 -0.379072 -1.06494 -0.0572642 -0.453161 
-1.07972 -0.0225364 -0.457718 -0.966709 -0.175572 -0.453689 -1.08569 -0.0169873 -0.456236 
-1.08709 -0.0216374 -0.457976 -1.05388 0.0198602 -0.436137 -0.909161 0.0288742 -0.359571 
-1.17388 0.319776 -0.577737 -1.12496 -0.0377477 -0.39125 -0.990303 0.0221614 -0.419285 
-0.908705 -0.05808 -0.375983 -0.897526 -0.114284 -0.374487 -1.03985 -0.0882058 -0.44384 
-0.944944 -0.00741912 -0.398723 -1.0222 -0.00219769 -0.494358 -1.08663 -0.129388 -0.478226 
-1.17184 0.130419 -0.681717 -0.931588 -0.0316276 -0.395346 -1.26537 -0.0658726 -0.534996 
-1.16957 0.310516 -0.813248 -1.13112 0.150465 -0.511774 -0.964966 0.0147693 -0.458478 
-1.1178 0.0527603 -0.47666 -0.838558 0.0812695 -0.348273 -0.841383 0.0949566 -0.323192 
-1.31063 -0.0663258 -0.317447 -1.09471 -0.129052 -0.484091 -0.872787 0.0299035 -0.33487 
-1.06266 0.0364929 -0.450481 -1.01191 -0.0552672 -0.420815 -1.12243 -0.0868275 -0.490259 
-0.788485 -0.0804107 -0.324092 -1.02217 -0.070107 -0.452497 -0.789686 0.0437189 -0.32949 
-0.710854 0.12335 -0.291424 -1.00188 0.0097486 -0.407713 -0.995791 -0.043696 -0.414462 
-1.14871 0.0647004 -0.484269 -0.872951 -0.0397597 -0.35896 -1.0558 -0.0329734 -0.437544 
-0.936492 0.00500153 -0.382341 -0.950816 0.0560119 -0.402271 -0.813546 0.00632992 -0.340567 
-0.927896 0.0148387 -0.396667 -0.920802 0.0745279 -0.382425 -0.94491 0.0122809 -0.401191 
-0.907832 0.0950456 -0.401576 -1.02952 -0.0416218 -0.430965 -0.843119 0.0734787 -0.345002 
-0.843453 0.0890879 -0.337365 -0.690532 -0.0762694 -0.311531 -1.33641 0.0100494 -0.507623 
-1.04437 0.17726 -0.454374 -0.982239 0.0234654 -0.452803 -0.906668 0.0235953 -0.380921 
-0.806507 0.0156625 -0.321941 -0.88285 0.00350806 -0.459861 -0.746058 -0.0454983 -0.340258 
-0.975438 -0.0686978 -0.417401 -0.783813 0.0290653 -0.273369 -0.970427 -0.0590681 -0.406228 
-0.937247 -0.0102173 -0.391761 -0.838668 -0.0837863 -0.231374 -0.805087 0.0799875 -0.315591 
-0.796979 0.0770271 -0.318612 -1.05706 -0.237159 -0.510405 -0.818366 -0.0115639 -0.338848 
-0.982248 -0.0495012 -0.421613 -1.07196 -0.340042 -0.530367 -0.827065 0.0686564 -0.303071 
-0.912248 0.0281149 -0.372866 -0.836954 -0.0181316 -0.373792 -0.738586 0.00204524 -0.339147 
-0.88534 0.0259439 -0.38017 -0.847347 0.035488 -0.377131 -0.846232 0.0404811 -0.380464 
-0.843607 0.0405987 -0.370689 -0.779043 0.131528 -0.320574 -0.773933 -0.0560705 -0.194699 
-0.765515 0.0718138 -0.316203 -0.747124 0.0274818 -0.292493 -0.949595 -0.0530987 -0.397453 
-0.856465 0.0698885 -0.369771 -0.916478 -0.0592686 -0.398014 -0.906123 -0.0502746 -0.392666 
-0.914549 -0.0672839 -0.387497 -0.987505 -0.0484515 -0.415221 -1.04595 -0.194716 -0.492563 
-1.08196 -0.255461 -0.528654 -0.961369 -0.494794 -0.672044 -0.86352 -0.0952335 -0.346247 
-0.879577 -0.0679864 -0.349749 -0.939847 -0.104886 -0.387306 -0.874624 -0.0739064 -0.376317 
-0.67713 -0.0323108 -0.291414 -0.920481 0.0246263 -0.384784 -0.924212 0.0308421 -0.382491 
-0.838182 -0.0218452 -0.349735 -0.858183 -0.0313807 -0.366513 -0.951024 0.00996107 -0.395206 
-0.758578 0.00773605 -0.326413 -0.774955 -0.0687648 -0.314581 -0.965632 0.0113995 -0.40977 
-1.01394 0.0684536 -0.427778 -0.951156 0.0747882 -0.383085 -0.998601 0.0616126 -0.409499 
-1.08092 0.0219421 -0.412869 -0.942688 -0.0661424 -0.342151 -0.808489 -0.117362 -0.304286 
-0.729396 -0.0889481 -0.278214 -0.774456 -0.14519 -0.285421 -0.74321 -0.0464506 -0.313278 
-0.818092 -0.0313205 -0.346902 -0.80177 -0.0148932 -0.348587 -0.76911 0.0375412 -0.32202 
-1.1514 0.0184262 -0.719401 -0.564506 -0.061208 -0.23517 -0.63006 0.0262735 -0.261845 
-0.820992 -0.0447605 -0.340443 -0.80298 -0.0489623 -0.347958 -0.722284 -0.0142922 -0.310229 