# vtk DataFile Version 4.0
Generated by LIGGGHTS
ASCII
DATASET POLYDATA
POINTS 810 float
-0.203173 0.00241146 -0.191556 -0.201213 0.00592965 -0.189505 -0.477722 -0.0324435 -0.397816 
-0.465909 -0.0140848 -0.390425 -0.4841 -0.00288588 -0.390422 -0.475803 -0.00148962 -0.391428 
-0.464508 -0.0238533 -0.383492 -0.476388 -0.0119396 -0.383105 -0.458694 -0.00177324 -0.384418 
-0.496395 -0.015392 -0.382064 -0.463182 -0.0133986 -0.378637 -0.468798 0.00918966 -0.379568 
-0.465096 0.0206764 -0.375716 -0.459892 -0.0223541 -0.371928 -0.454257 -0.00176055 -0.371128 
-0.457552 0.00598212 -0.37073 -0.462129 -0.0237275 -0.366105 -0.448919 -0.0021762 -0.364912 
-0.474443 0.00611945 -0.364199 -0.450685 0.0118687 -0.365051 -0.43901 0.00490443 -0.362128 
-0.424571 0.00411228 -0.362043 -0.4324 -0.00836053 -0.35715 -0.428608 0.00880054 -0.35739 
-0.430668 -0.0267812 -0.35659 -0.443169 0.00055146 -0.35441 -0.436138 0.0029154 -0.35364 
-0.425873 0.0112356 -0.354571 -0.439055 -0.00501354 -0.350999 -0.431598 0.00827897 -0.351334 
-0.43005 0.0258593 -0.350453 -0.432652 -0.00549148 -0.347534 -0.435748 0.0101075 -0.347264 
-0.452448 0.0151325 -0.34727 -0.424187 -0.00477758 -0.345572 -0.435299 0.000740783 -0.345008 
-0.430907 0.00505928 -0.342792 -0.446655 0.010129 -0.345412 -0.450958 0.0127863 -0.345318 
-0.432042 0.0116629 -0.344157 -0.443533 -0.00186648 -0.342082 -0.424317 0.00121905 -0.339666 
-0.424655 0.00426057 -0.339479 -0.419781 0.00899061 -0.341143 -0.440961 0.0528846 -0.339178 
-0.451574 -0.02506 -0.336904 -0.430811 -0.0134617 -0.337026 -0.4278 0.00502695 -0.335444 
-0.44503 -0.0344463 -0.335062 -0.428812 0.00112585 -0.334486 -0.443638 -0.0289487 -0.32895 
-0.428442 -0.00365959 -0.329023 -0.429597 0.00235218 -0.32902 -0.413808 0.00813486 -0.330859 
-0.405749 0.00778698 -0.328391 -0.436192 0.0275353 -0.329924 -0.432286 0.0255716 -0.327258 
-0.416372 -0.00247107 -0.321867 -0.412354 -0.0108954 -0.320265 -0.403964 -0.00303862 -0.318231 
-0.431458 0.0135042 -0.319918 -0.428255 -0.0204999 -0.315885 -0.40698 -0.00974319 -0.316803 
-0.410104 -0.0012762 -0.311296 -0.416071 0.00050507 -0.312163 -0.41061 0.00432603 -0.310671 
-0.406687 -0.0217381 -0.308795 -0.399702 -0.0154602 -0.308 -0.406989 -0.00527237 -0.309811 
-0.401117 -0.00465609 -0.306907 -0.37581 0.00228586 -0.308461 -0.41637 0.00855392 -0.30682 
-0.419214 0.0115501 -0.308155 -0.412351 0.0159588 -0.306982 -0.412863 0.0110039 -0.306034 
-0.403787 0.0122876 -0.304852 -0.389949 -0.00504272 -0.300077 -0.424454 -0.0392117 -0.298572 
-0.401012 -0.0278326 -0.292187 -0.393229 -0.00848292 -0.29323 -0.401652 0.00314937 -0.29424 
-0.397694 -0.0039535 -0.29106 -0.393575 -0.00086618 -0.289505 -0.389997 -0.00943248 -0.285581 
-0.384569 -0.00716421 -0.285421 -0.387811 0.0246824 -0.284955 -0.37817 0.0256608 -0.285623 
-0.389947 -0.0255203 -0.281817 -0.369979 0.0122661 -0.279354 -0.379182 0.0210149 -0.279388 
-0.382613 0.023535 -0.276772 -0.386908 0.0325215 -0.280243 -0.385494 -0.0282188 -0.274201 
-0.380655 -0.0168325 -0.274322 -0.378804 -0.0115317 -0.276508 -0.378183 -0.00589213 -0.27566 
-0.370568 0.00312297 -0.273611 -0.373984 0.00897687 -0.275817 -0.365596 0.00764049 -0.273463 
-0.370119 0.0152185 -0.273684 -0.374789 -0.0202737 -0.272508 -0.370349 0.00597284 -0.270098 
-0.368726 0.00932579 -0.271652 -0.37279 -0.0182208 -0.268648 -0.366483 -0.00657571 -0.265857 
-0.364799 0.000959479 -0.266787 -0.364752 0.00505864 -0.267043 -0.372611 0.00990076 -0.268695 
-0.367653 0.0109646 -0.265939 -0.359082 0.013499 -0.268427 -0.365172 -0.0151632 -0.265532 
-0.361633 0.0117539 -0.263201 -0.369662 -0.0268749 -0.261076 -0.452348 -0.0227565 -0.259429 
-0.361732 -0.0156571 -0.25968 -0.355756 -0.0100521 -0.258404 -0.356305 -0.00507134 -0.260412 
-0.3559 0.00374427 -0.260435 -0.35349 0.0137658 -0.258612 -0.354804 0.017114 -0.259208 
-0.351235 -0.0138329 -0.255778 -0.348412 -0.00622951 -0.2564 -0.346041 -0.00361979 -0.254914 
-0.352519 0.0063113 -0.25733 -0.350121 0.0108216 -0.25494 -0.347449 -0.0143054 -0.253741 
-0.345474 -0.0132189 -0.251594 -0.341919 -0.00957533 -0.250971 -0.346416 0.0124961 -0.253516 
-0.350214 -0.0303013 -0.250329 -0.34108 -0.0191928 -0.247495 -0.336971 -0.0085206 -0.24729 
-0.34439 0.00142759 -0.252288 -0.337938 0.00977083 -0.24917 -0.33834 0.0154134 -0.248569 
-0.339073 0.0186108 -0.248063 -0.344268 0.0212923 -0.249249 -0.34874 0.0341664 -0.248462 
-0.334117 -0.0198142 -0.245029 -0.332049 -0.00353332 -0.245568 -0.32884 0.00027741 -0.243664 
-0.325809 -0.00242564 -0.243366 -0.328061 0.00574574 -0.244292 -0.334692 0.0213176 -0.24528 
-0.343728 0.0337742 -0.246062 -0.325459 -0.0101031 -0.241647 -0.321785 -0.00798689 -0.241332 
-0.324624 -0.0054906 -0.242664 -0.32465 0.00269489 -0.242907 -0.321969 0.00342204 -0.241691 
-0.325572 0.0107306 -0.242798 -0.333445 0.0268645 -0.242347 -0.31873 -0.014037 -0.239507 
-0.315189 -0.0140446 -0.237889 -0.314102 -0.00336711 -0.238249 -0.309073 -0.00217067 -0.236389 
-0.316578 0.000459875 -0.238521 -0.315818 0.0176752 -0.236496 -0.319659 0.0226192 -0.238237 
-0.321741 0.0260364 -0.23842 -0.312632 -0.0161537 -0.235416 -0.307376 -0.00791861 -0.235451 
-0.305432 0.00158235 -0.234836 -0.300606 0.00129654 -0.232822 -0.305962 0.00546654 -0.233731 
-0.298437 -0.0218258 -0.229578 -0.303991 -0.0171217 -0.231737 -0.294142 -0.0160191 -0.228999 
-0.297344 -0.013227 -0.229563 -0.297154 -0.000296631 -0.23034 -0.298032 0.0135054 -0.230846 
-0.29341 0.0119421 -0.22911 -0.302477 0.0159812 -0.232358 -0.299472 0.016383 -0.231019 
-0.30137 0.0229899 -0.230531 -0.298203 0.0215857 -0.229477 -0.305941 0.0279671 -0.231331 
-0.303024 0.0278059 -0.230169 -0.309591 -0.0391658 -0.228874 -0.295676 -0.0287713 -0.226717 
-0.292874 -0.0232914 -0.225977 -0.289712 -0.0148072 -0.227271 -0.292662 -0.0109292 -0.227845 
-0.285839 -0.00467464 -0.226498 -0.289502 -0.00301507 -0.227017 -0.285426 -0.000268768 -0.226483 
-0.283817 -0.00255163 -0.225405 -0.291651 0.0156835 -0.226803 -0.296924 0.017958 -0.228353 
-0.293692 0.0210945 -0.227704 -0.298961 -0.0375422 -0.225223 -0.296736 -0.0342431 -0.225515 
-0.280753 -0.0170515 -0.223222 -0.278926 -0.014569 -0.222766 -0.281627 -0.0116355 -0.22313 
-0.284787 -0.00773747 -0.224424 -0.276366 -0.00832288 -0.22236 -0.281135 -0.00651001 -0.223369 
-0.274815 -0.00539639 -0.221825 -0.280592 -0.00151903 -0.223288 -0.276093 -0.00141515 -0.222495 
-0.278814 0.00388428 -0.223469 -0.280149 0.00680299 -0.223854 -0.279687 0.0097945 -0.223493 
-0.281432 0.0133946 -0.222912 -0.280411 0.0178811 -0.222768 -0.279656 -0.0284241 -0.220358 
-0.276779 -0.0259947 -0.219839 -0.272969 -0.0227062 -0.218918 -0.277019 -0.0165473 -0.221559 
-0.274259 -0.0156829 -0.22068 -0.276945 -0.0123625 -0.220074 -0.272107 -0.00907614 -0.220497 
-0.269114 -0.00733543 -0.219343 -0.272082 -0.00476733 -0.220706 -0.270342 -0.00242529 -0.220036 
-0.269143 0.00363118 -0.218341 -0.273947 0.00913946 -0.221161 -0.269726 0.00812194 -0.219439 
-0.277901 0.0164252 -0.221809 -0.27396 -0.0278473 -0.218185 -0.267787 -0.0168864 -0.21672 
-0.259503 -0.0151494 -0.214521 -0.269802 -0.0120167 -0.218125 -0.261045 -0.0116043 -0.215585 
-0.264895 -0.00732545 -0.216478 -0.265589 -0.00214296 -0.216967 -0.263151 0.00231246 -0.215876 
-0.259401 0.00683504 -0.215155 -0.266079 0.0080098 -0.217918 -0.263019 0.00946074 -0.215484 
-0.264932 0.0140926 -0.215809 -0.265813 0.0191012 -0.215384 -0.272249 0.0244455 -0.217197 
-0.257607 -0.0226661 -0.212399 -0.257507 -0.0107876 -0.214199 -0.254641 -0.00538782 -0.213312 
-0.257973 -0.00261798 -0.213752 -0.256508 0.00553293 -0.214 -0.257297 0.0097425 -0.214145 
-0.254434 0.0117457 -0.212836 -0.251414 0.0121429 -0.2115 -0.260583 0.0167901 -0.21357 
-0.255797 0.0161744 -0.212739 -0.250808 -0.0274034 -0.208596 -0.250263 -0.0186225 -0.210002 
-0.25178 -0.0130264 -0.210414 -0.248727 -0.00915775 -0.210636 -0.245569 -0.00765287 -0.208003 
-0.250398 -0.00384562 -0.210506 -0.241219 -0.00372711 -0.207736 -0.252524 0.00309371 -0.211213 
-0.252192 0.0176351 -0.209915 -0.248941 0.0209397 -0.209165 -0.253647 0.021773 -0.210994 
-0.251115 0.0263371 -0.207922 -0.256416 -0.0408634 -0.205625 -0.245476 -0.0267702 -0.20662 
-0.242436 -0.0233324 -0.204975 -0.241069 -0.0181994 -0.206311 -0.238972 -0.020258 -0.20517 
-0.239114 -0.014726 -0.204963 -0.250024 -0.0100346 -0.207965 -0.239884 -0.00915199 -0.205723 
-0.238518 -0.00509802 -0.20652 -0.236099 -0.00254725 -0.204552 -0.234682 0.00166191 -0.204938 
-0.237701 0.00575835 -0.204981 -0.240985 0.0117483 -0.206065 -0.237014 0.0108421 -0.205581 
-0.235675 0.0134467 -0.204565 -0.249095 0.0304651 -0.205986 -0.230564 -0.0170193 -0.201077 
-0.226708 -0.0157932 -0.200626 -0.230141 -0.00583762 -0.201833 -0.256922 -0.00315297 -0.202737 
-0.231794 -0.00272478 -0.203831 -0.225444 0.00226299 -0.200988 -0.229204 0.00934141 -0.202405 
-0.2341 0.0206107 -0.203029 -0.238799 0.0291093 -0.203115 -0.229321 -0.0227535 -0.200597 
-0.221347 -0.0178939 -0.198136 -0.218605 -0.00671552 -0.198016 -0.215948 -0.00573461 -0.197005 
-0.226048 -0.00236184 -0.200275 -0.216045 -0.00133862 -0.197084 -0.22053 0.00702351 -0.197753 
-0.216915 0.00943574 -0.19721 -0.214435 -0.0164064 -0.195104 -0.217181 -0.016068 -0.196552 
-0.212652 -0.0137665 -0.19455 -0.209036 -0.00710407 -0.194018 -0.21636 0.0046364 -0.196068 
-0.208319 0.0102759 -0.193464 -0.220916 0.0121693 -0.195804 -0.211442 0.012385 -0.194564 
-0.210128 0.0150117 -0.193714 -0.227641 0.0208221 -0.195531 -0.217616 0.0193906 -0.195213 
-0.214011 0.0210157 -0.19462 -0.226988 0.0296757 -0.197052 -0.229618 0.03398 -0.197107 
-0.221668 0.0330444 -0.19515 -0.23497 0.0481297 -0.195392 -0.208062 -0.0110206 -0.193189 
-0.206691 -0.0136792 -0.192333 -0.204041 -0.00501549 -0.192001 -0.204509 -0.00102054 -0.192207 
-0.209009 0.0013226 -0.19298 -0.207914 0.0178603 -0.192469 -0.226855 0.0513454 -0.190706 
-0.204022 -0.0200037 -0.189468 -0.204593 -0.00908621 -0.189177 -0.210973 0.0110242 -0.188643 
-0.203925 0.0169857 -0.189768 -0.206027 0.00587011 -0.18565 -0.211461 -0.0624109 -0.179073 
[...]
POINT_DATA 810
FIELD FieldData 7
id 1 810 int
447 468 132 116 154 17 147 61 158 
81 192 37 174 52 166 64 39 47 
120 77 84 167 109 82 74 65 12 
35 156 95 91 112 133 124 94 145 
73 157 222 98 96 55 25 233 146 
245 137 118 231 150 138 200 188 274 
136 139 244 111 176 89 103 159 175 
143 66 270 110 125 201 86 187 182 
80 140 105 216 196 268 203 186 90 
78 127 128 113 281 257 232 135 227 
198 327 171 165 204 228 246 238 121 
234 144 153 265 194 191 170 202 97 
178 161 224 215 347 304 230 117 123 
141 277 183 102 209 185 164 199 287 
211 218 206 290 205 129 372 259 131 
278 151 258 275 152 243 260 262 210 
223 282 252 314 155 239 271 292 119 
302 149 180 293 342 299 300 214 219 
220 208 279 295 189 212 115 190 236 
301 309 289 288 184 272 325 337 286 
355 221 193 251 254 250 172 256 318 
311 320 348 315 249 317 106 169 217 
107 341 284 308 207 160 266 323 297 
338 413 312 313 229 225 346 235 168 
307 197 310 324 365 255 359 179 379 
280 344 240 345 333 269 267 242 319 
403 425 247 305 283 261 213 322 370 
352 350 321 253 378 241 330 285 306 
380 389 264 332 381 405 406 373 237 
303 391 316 376 331 402 354 384 411 
173 294 393 248 329 396 226 388 334 
392 339 336 328 358 374 291 426 367 
326 441 335 296 273 395 429 448 377 
414 504 419 362 383 356 401 404 371 
386 349 415 394 298 463 535 432 438 
369 457 398 456 276 428 439 676 646 
673 409 382 385 631 400 424 407 685 
437 473 442 423 360 467 452 443 465 
513 481 399 490 410 421 472 387 470 
510 475 357 397 502 446 523 430 351 
408 343 500 466 427 458 390 496 195 
418 484 460 363 433 471 479 434 375 
412 340 364 469 478 440 417 480 431 
494 483 464 422 476 518 492 505 462 
368 450 453 353 416 584 525 618 568 
451 508 482 435 540 558 538 530 509 
533 459 543 522 455 515 454 512 488 
444 495 529 507 537 541 461 449 436 
501 361 420 366 551 554 531 563 491 
550 445 528 573 526 603 489 487 546 
498 514 527 545 559 589 582 556 503 
566 474 572 548 630 493 520 511 497 
588 594 576 542 506 564 596 574 477 
581 565 519 532 553 547 555 561 627 
517 521 524 534 549 578 624 516 486 
577 602 485 599 611 552 591 562 583 
609 615 567 650 604 587 619 595 644 
598 640 656 634 580 544 570 539 586 
557 616 575 658 621 536 590 635 623 
647 657 610 636 649 612 617 625 597 
569 593 585 607 641 600 499 648 637 
614 592 628 660 571 620 655 653 613 
632 629 667 886 608 889 622 888 638 
670 654 665 883 721 720 652 885 893 
626 688 639 711 713 664 678 645 606 
651 717 601 633 715 683 682 661 733 
642 737 684 707 728 703 708 738 693 
681 579 701 732 698 692 702 739 706 
662 680 679 699 643 716 712 709 675 
677 750 696 734 723 671 704 726 263 
659 560 727 694 691 722 674 736 669 
725 689 752 695 666 710 668 697 672 
719 686 749 731 705 724 729 663 735 
745 687 730 741 700 718 744 743 747 
690 748 742 746 714 740 751 758 755 
605 757 763 761 756 764 759 754 762 
760 753 776 768 769 772 775 773 766 
771 767 774 770 777 785 784 765 789 
788 787 790 781 783 786 782 778 780 
795 779 799 796 791 797 792 802 794 
801 803 798 793 800 810 815 808 814 
809 811 805 813 812 816 804 807 821 
825 806 827 823 828 829 817 824 826 
819 822 818 830 836 820 840 834 841 
839 835 838 842 853 831 833 852 837 
851 832 846 849 855 847 844 854 845 
848 850 843 864 860 856 861 858 867 
857 863 868 865 859 866 862 874 881 
870 871 877 880 878 879 876 873 875 
869 872 884 892 887 891 894 890 882 

type 1 810 int
1 1 1 1 1 1 1 1 1 
1 1 1 1 1 1 1 1 1 
1 1 1 1 1 1 1 1 1 
1 1 1 1 1 1 1 1 1 
1 1 1 1 1 1 1 1 1 
1 1 1 1 1 1 1 1 1 
1 1 1 1 1 1 1 1 1 
1 1 1 1 1 1 1 1 1 
1 1 1 1 1 1 1 1 1 
1 1 1 1 1 1 1 1 1 
1 1 1 1 1 1 1 1 1 
1 1 1 1 1 1 1 1 1 
1 1 1 1 1 1 1 1 1 
1 1 1 1 1 1 1 1 1 
1 1 1 1 1 1 1 1 1 
1 1 1 1 1 1 1 1 1 
1 1 1 1 1 1 1 1 1 
1 1 1 1 1 1 1 1 1 
1 1 1 1 1 1 1 1 1 
1 1 1 1 1 1 1 1 1 
1 1 1 1 1 1 1 1 1 
1 1 1 1 1 1 1 1 1 
1 1 1 1 1 1 1 1 1 
1 1 1 1 1 1 1 1 1 
1 1 1 1 1 1 1 1 1 
1 1 1 1 1 1 1 1 1 
1 1 1 1 1 1 1 1 1 
1 1 1 1 1 1 1 1 1 
1 1 1 1 1 1 1 1 1 
1 1 1 1 1 1 1 1 1 
1 1 1 1 1 1 1 1 1 
1 1 1 1 1 1 1 1 1 
1 1 1 1 1 1 1 1 1 
1 1 1 1 1 1 1 1 1 
1 1 1 1 1 1 1 1 1 
1 1 1 1 1 1 1 1 1 
1 1 1 1 1 1 1 1 1 
1 1 1 1 1 1 1 1 1 
1 1 1 1 1 1 1 1 1 
1 1 1 1 1 1 1 1 1 
1 1 1 1 1 1 1 1 1 
1 1 1 1 1 1 1 1 1 
1 1 1 1 1 1 1 1 1 
1 1 1 1 1 1 1 1 1 
1 1 1 1 1 1 1 1 1 
1 1 1 1 1 1 1 1 1 
1 1 1 1 1 1 1 1 1 
1 1 1 1 1 1 1 1 1 
1 1 1 1 1 1 1 1 1 
1 1 1 1 1 1 1 1 1 
1 1 1 1 1 1 1 1 1 
1 1 1 1 1 1 1 1 1 
1 1 1 1 1 1 1 1 1 
1 1 1 1 1 1 1 1 1 
1 1 1 1 1 1 1 1 1 
1 1 1 1 1 1 1 1 1 
1 1 1 1 1 1 1 1 1 
1 1 1 1 1 1 1 1 1 
1 1 1 1 1 1 1 1 1 
1 1 1 1 1 1 1 1 1 
1 1 1 1 1 1 1 1 1 
1 1 1 1 1 1 1 1 1 
1 1 1 1 1 1 1 1 1 
1 1 1 1 1 1 1 1 1 
1 1 1 1 1 1 1 1 1 
1 1 1 1 1 1 1 1 1 
1 1 1 1 1 1 1 1 1 
1 1 1 1 1 1 1 1 1 
1 1 1 1 1 1 1 1 1 
1 1 1 1 1 1 1 1 1 
1 1 1 1 1 1 1 1 1 
1 1 1 1 1 1 1 1 1 
1 1 1 1 1 1 1 1 1 
1 1 1 1 1 1 1 1 1 
1 1 1 1 1 1 1 1 1 
1 1 1 1 1 1 1 1 1 
1 1 1 1 1 1 1 1 1 
1 1 1 1 1 1 1 1 1 
1 1 1 1 1 1 1 1 1 
1 1 1 1 1 1 1 1 1 
1 1 1 1 1 1 1 1 1 
1 1 1 1 1 1 1 1 1 
1 1 1 1 1 1 1 1 1 
1 1 1 1 1 1 1 1 1 
1 1 1 1 1 1 1 1 1 
1 1 1 1 1 1 1 1 1 
1 1 1 1 1 1 1 1 1 
1 1 1 1 1 1 1 1 1 
1 1 1 1 1 1 1 1 1 
1 1 1 1 1 1 1 1 1 

i 3 810 int
0 0 0 0 0 0 0 0 0 
0 0 0 0 0 0 0 0 0 
0 0 0 0 0 0 0 0 0 
0 0 0 0 0 0 0 0 0 
0 0 0 0 0 0 0 0 0 
0 0 0 0 0 0 0 0 0 
0 0 0 0 0 0 0 0 0 
0 0 0 0 0 0 0 0 0 
0 0 0 0 0 0 0 0 0 
0 0 0 0 0 0 0 0 0 
0 0 0 0 0 0 0 0 0 
0 0 0 0 0 0 0 0 0 
0 0 0 0 0 0 0 0 0 
0 0 0 0 0 0 0 0 0 
0 0 0 0 0 0 0 0 0 
0 0 0 0 0 0 0 0 0 
0 0 0 0 0 0 0 0 0 
0 0 0 0 0 0 0 0 0 
0 0 0 0 0 0 0 0 0 
0 0 0 0 0 0 0 0 0 
0 0 0 0 0 0 0 0 0 
0 0 0 0 0 0 0 0 0 
0 0 0 0 0 0 0 0 0 
0 0 0 0 0 0 0 0 0 
0 0 0 0 0 0 0 0 0 
0 0 0 0 0 0 0 0 0 
0 0 0 0 0 0 0 0 0 
0 0 0 0 0 0 0 0 0 
0 0 0 0 0 0 0 0 0 
0 0 0 0 0 0 0 0 0 
0 0 0 0 0 0 0 0 0 
0 0 0 0 0 0 0 0 0 
0 0 0 0 0 0 0 0 0 
0 0 0 0 0 0 0 0 0 
0 0 0 0 0 0 0 0 0 
0 0 0 0 0 0 0 0 0 
0 0 0 0 0 0 0 0 0 
0 0 0 0 0 0 0 0 0 
0 0 0 0 0 0 0 0 0 
0 0 0 0 0 0 0 0 0 
0 0 0 0 0 0 0 0 0 
0 0 0 0 0 0 0 0 0 
0 0 0 0 0 0 0 0 0 
0 0 0 0 0 0 0 0 0 
0 0 0 0 0 0 0 0 0 
0 0 0 0 0 0 0 0 0 
0 0 0 0 0 0 0 0 0 
0 0 0 0 0 0 0 0 0 
0 0 0 0 0 0 0 0 0 
0 0 0 0 0 0 0 0 0 
0 0 0 0 0 0 0 0 0 
0 0 0 0 0 0 0 0 0 
0 0 0 0 0 0 0 0 0 
0 0 0 0 0 0 0 0 0 
0 0 0 0 0 0 0 0 0 
0 0 0 0 0 0 0 0 0 
0 0 0 0 0 0 0 0 0 
0 0 0 0 0 0 0 0 0 
0 0 0 0 0 0 0 0 0 
0 0 0 0 0 0 0 0 0 
0 0 0 0 0 0 0 0 0 
0 0 0 0 0 0 0 0 0 
0 0 0 0 0 0 0 0 0 
0 0 0 0 0 0 0 0 0 
0 0 0 0 0 0 0 0 0 
0 0 0 0 0 0 0 0 0 
0 0 0 0 0 0 0 0 0 
0 0 0 0 0 0 0 0 0 
0 0 0 0 0 0 0 0 0 
0 0 0 0 0 0 0 0 0 
0 0 0 0 0 0 0 0 0 
0 0 0 0 0 0 0 0 0 
0 0 0 0 0 0 0 0 0 
0 0 0 0 0 0 0 0 0 
0 0 0 0 0 0 0 0 0 
0 0 0 0 0 0 0 0 0 
0 0 0 0 0 0 0 0 0 
0 0 0 0 0 0 0 0 0 
0 0 0 0 0 0 0 0 0 
0 0 0 0 0 0 0 0 0 
0 0 0 0 0 0 0 0 0 
0 0 0 0 0 0 0 0 0 
0 0 0 0 0 0 0 0 0 
0 0 0 0 0 0 0 0 0 
0 0 0 0 0 0 0 0 0 
0 0 0 0 0 0 0 0 0 
0 0 0 0 0 0 0 0 0 
0 0 0 0 0 0 0 0 0 
0 0 0 0 0 0 0 0 0 
0 0 0 0 0 0 0 0 0 
0 0 0 0 0 0 0 0 0 
0 0 0 0 0 0 0 0 0 
0 0 0 0 0 0 0 0 0 
0 0 0 0 0 0 0 0 0 
0 0 0 0 0 0 0 0 0 
0 0 0 0 0 0 0 0 0 
0 0 0 0 0 0 0 0 0 
0 0 0 0 0 0 0 0 0 
0 0 0 0 0 0 0 0 0 
0 0 0 0 0 0 0 0 0 
0 0 0 0 0 0 0 0 0 
0 0 0 0 0 0 0 0 0 
0 0 0 0 0 0 0 0 0 
0 0 0 0 0 0 0 0 0 
0 0 0 0 0 0 0 0 0 
0 0 0 0 0 0 0 0 0 
0 0 0 0 0 0 0 0 0 
0 0 0 0 0 0 0 0 0 
0 0 0 0 0 0 0 0 0 
0 0 0 0 0 0 0 0 0 
0 0 0 0 0 0 0 0 0 
0 0 0 0 0 0 0 0 0 
0 0 0 0 0 0 0 0 0 
0 0 0 0 0 0 0 0 0 
0 0 0 0 0 0 0 0 0 
0 0 0 0 0 0 0 0 0 
0 0 0 0 0 0 0 0 0 
0 0 0 0 0 0 0 0 0 
0 0 0 0 0 0 0 0 0 
0 0 0 0 0 0 0 0 0 
0 0 0 0 0 0 0 0 0 
0 0 0 0 0 0 0 0 0 
0 0 0 0 0 0 0 0 0 
0 0 0 0 0 0 0 0 0 
0 0 0 0 0 0 0 0 0 
0 0 0 0 0 0 0 0 0 
0 0 0 0 0 0 0 0 0 
0 0 0 0 0 0 0 0 0 
0 0 0 0 0 0 0 0 0 
0 0 0 0 0 0 0 0 0 
0 0 0 0 0 0 0 0 0 
0 0 0 0 0 0 0 0 0 
0 0 0 0 0 0 0 0 0 
0 0 0 0 0 0 0 0 0 
0 0 0 0 0 0 0 0 0 
0 0 0 0 0 0 0 0 0 
0 0 0 0 0 0 0 0 0 
0 0 0 0 0 0 0 0 0 
0 0 0 0 0 0 0 0 0 
0 0 0 0 0 0 0 0 0 
0 0 0 0 0 0 0 0 0 
0 0 0 0 0 0 0 0 0 
0 0 0 0 0 0 0 0 0 
0 0 0 0 0 0 0 0 0 
0 0 0 0 0 0 0 0 0 
0 0 0 0 0 0 0 0 0 
0 0 0 0 0 0 0 0 0 
0 0 0 0 0 0 0 0 0 
0 0 0 0 0 0 0 0 0 
0 0 0 0 0 0 0 0 0 
0 0 0 0 0 0 0 0 0 
0 0 0 0 0 0 0 0 0 
0 0 0 0 0 0 0 0 0 
0 0 0 0 0 0 0 0 0 
0 0 0 0 0 0 0 0 0 
0 0 0 0 0 0 0 0 0 
0 0 0 0 0 0 0 0 0 
0 0 0 0 0 0 0 0 0 
0 0 0 0 0 0 0 0 0 
0 0 0 0 0 0 0 0 0 
0 0 0 0 0 0 0 0 0 
0 0 0 0 0 0 0 0 0 
0 0 0 0 0 0 0 0 0 
0 0 0 0 0 0 0 0 0 
0 0 0 0 0 0 0 0 0 
0 0 0 0 0 0 0 0 0 
0 0 0 0 0 0 0 0 0 
0 0 0 0 0 0 0 0 0 
0 0 0 0 0 0 0 0 0 
0 0 0 0 0 0 0 0 0 
0 0 0 0 0 0 0 0 0 
0 0 0 0 0 0 0 0 0 
0 0 0 0 0 0 0 0 0 
0 0 0 0 0 0 0 0 0 
0 0 0 0 0 0 0 0 0 
0 0 0 0 0 0 0 0 0 
0 0 0 0 0 0 0 0 0 
0 0 0 0 0 0 0 0 0 
0 0 0 0 0 0 0 0 0 
0 0 0 0 0 0 0 0 0 
0 0 0 0 0 0 0 0 0 
0 0 0 0 0 0 0 0 0 
0 0 0 0 0 0 0 0 0 
0 0 0 0 0 0 0 0 0 
0 0 0 0 0 0 0 0 0 
0 0 0 0 0 0 0 0 0 
0 0 0 0 0 0 0 0 0 
0 0 0 0 0 0 0 0 0 
0 0 0 0 0 0 0 0 0 
0 0 0 0 0 0 0 0 0 
0 0 0 0 0 0 0 0 0 
0 0 0 0 0 0 0 0 0 
0 0 0 0 0 0 0 0 0 
0 0 0 0 0 0 0 0 0 
0 0 0 0 0 0 0 0 0 
0 0 0 0 0 0 0 0 0 
0 0 0 0 0 0 0 0 0 
0 0 0 0 0 0 0 0 0 
0 0 0 0 0 0 0 0 0 
0 0 0 0 0 0 0 0 0 
0 0 0 0 0 0 0 0 0 
0 0 0 0 0 0 0 0 0 
0 0 0 0 0 0 0 0 0 
0 0 0 0 0 0 0 0 0 
0 0 0 0 0 0 0 0 0 
0 0 0 0 0 0 0 0 0 
0 0 0 0 0 0 0 0 0 
0 0 0 0 0 0 0 0 0 
0 0 0 0 0 0 0 0 0 
0 0 0 0 0 0 0 0 0 
0 0 0 0 0 0 0 0 0 
0 0 0 0 0 0 0 0 0 
0 0 0 0 0 0 0 0 0 
0 0 0 0 0 0 0 0 0 
0 0 0 0 0 0 0 0 0 
0 0 0 0 0 0 0 0 0 
0 0 0 0 0 0 0 0 0 
0 0 0 0 0 0 0 0 0 
0 0 0 0 0 0 0 0 0 
0 0 0 0 0 0 0 0 0 
0 0 0 0 0 0 0 0 0 
0 0 0 0 0 0 0 0 0 
0 0 0 0 0 0 0 0 0 
0 0 0 0 0 0 0 0 0 
0 0 0 0 0 0 0 0 0 
0 0 0 0 0 0 0 0 0 
0 0 0 0 0 0 0 0 0 
0 0 0 0 0 0 0 0 0 
0 0 0 0 0 0 0 0 0 
0 0 0 0 0 0 0 0 0 
0 0 0 0 0 0 0 0 0 
0 0 0 0 0 0 0 0 0 
0 0 0 0 0 0 0 0 0 
0 0 0 0 0 0 0 0 0 
0 0 0 0 0 0 0 0 0 
0 0 0 0 0 0 0 0 0 
0 0 0 0 0 0 0 0 0 
0 0 0 0 0 0 0 0 0 
0 0 0 0 0 0 0 0 0 
0 0 0 0 0 0 0 0 0 
0 0 0 0 0 0 0 0 0 
0 0 0 0 0 0 0 0 0 
0 0 0 0 0 0 0 0 0 
0 0 0 0 0 0 0 0 0 
0 0 0 0 0 0 0 0 0 
0 0 0 0 0 0 0 0 0 
0 0 0 0 0 0 0 0 0 
0 0 0 0 0 0 0 0 0 
0 0 0 0 0 0 0 0 0 
0 0 0 0 0 0 0 0 0 
0 0 0 0 0 0 0 0 0 
0 0 0 0 0 0 0 0 0 
0 0 0 0 0 0 0 0 0 
0 0 0 0 0 0 0 0 0 
0 0 0 0 0 0 0 0 0 
0 0 0 0 0 0 0 0 0 
0 0 0 0 0 0 0 0 0 
0 0 0 0 0 0 0 0 0 
0 0 0 0 0 0 0 0 0 
0 0 0 0 0 0 0 0 0 
0 0 0 0 0 0 0 0 0 
0 0 0 0 0 0 0 0 0 
0 0 0 0 0 0 0 0 0 
0 0 0 0 0 0 0 0 0 
0 0 0 0 0 0 0 0 0 
0 0 0 0 0 0 0 0 0 
0 0 0 0 0 0 0 0 0 
0 0 0 0 0 0 0 0 0 
0 0 0 0 0 0 0 0 0 
0 0 0 0 0 0 0 0 0 

v 3 810 double
-0.892401 -0.05543 -0.402573 -0.98936 0.157895 -0.424975 -1.08618 -0.129173 -1.79754 
-1.04079 0.00651297 -1.76886 -1.25934 -0.101095 -1.79848 -1.13677 0.0257101 -1.77824 
-1.08577 0.104779 -1.80293 -1.18328 0.102491 -1.74645 -1.08849 -0.0675976 -1.75447 
-1.31752 0.207942 -1.78134 -1.08232 -0.0224344 -1.71487 -1.17128 -0.0833829 -1.72994 
-1.15856 0.079826 -1.69464 -1.06283 0.0176477 -1.69072 -1.05827 0.0730597 -1.66102 
-1.09304 0.0583722 -1.6563 -1.10855 0.0695216 -1.63298 -1.04712 0.0604206 -1.61416 
-1.26104 0.22598 -1.56721 -1.07089 0.0764774 -1.62453 -0.961548 0.0916634 -1.58794 
-1.0019 0.075526 -1.69202 -0.973134 0.0703171 -1.58698 -0.88939 -0.153853 -1.70478 
-0.959316 -0.0543726 -1.62568 -1.07676 -0.0339691 -1.56504 -0.9865 0.0755197 -1.53128 
-0.899299 0.142856 -1.55071 -1.06185 -0.0120895 -1.54156 -1.05297 -0.0790192 -1.51931 
-0.890193 -0.0398723 -1.53971 -1.071 0.176431 -1.56367 -1.04446 -0.0227815 -1.50881 
-1.26233 -0.131578 -1.54127 -0.926328 0.0128611 -1.50209 -1.03551 0.0244052 -1.47078 
-1.02561 -0.0353521 -1.47605 -1.2421 0.0873517 -1.52846 -1.25379 -0.133662 -1.53456 
-1.01979 -0.0331081 -1.48843 -1.15247 0.0306876 -1.46727 -0.914591 0.00212789 -1.398 
-0.999506 0.033051 -1.47192 -0.886289 -0.129696 -1.46616 -0.988256 0.109287 -1.46689 
-1.18844 -0.0429835 -1.45416 -1.07018 0.1249 -1.47324 -1.02934 -0.0471251 -1.41517 
-1.23671 0.0350299 -1.50247 -1.08484 -0.0586101 -1.42753 -1.11094 -0.0901156 -1.32143 
-1.10644 0.0822318 -1.38505 -1.12355 0.027498 -1.38089 -1.06595 -0.0633371 -1.58993 
-0.940199 0.0454977 -1.42012 -1.16459 -0.0905315 -1.57441 -1.14955 0.0820775 -1.29469 
-0.974827 0.0231995 -1.30425 -0.956358 0.130036 -1.33438 -0.970178 0.112088 -1.35982 
-1.06646 0.310137 -1.34748 -1.22839 0.138285 -1.34311 -0.9273 0.0533049 -1.2796 
-1.09065 -0.0323054 -1.25609 -1.1671 -0.102321 -1.28717 -1.0975 -0.108329 -1.25984 
-0.937038 0.00446306 -1.21145 -0.893674 0.0247865 -1.20612 -1.23618 -0.320835 -1.48984 
-0.95762 0.137807 -1.20816 -0.633205 0.0666279 -1.29519 -1.00178 0.126971 -1.16252 
-1.2022 -0.0484226 -1.22352 -1.06873 -0.121205 -1.26846 -1.25373 -0.158082 -1.27187 
-1.06902 -0.280969 -1.30448 -0.742355 -0.0334457 -1.28594 -1.27685 0.0526286 -1.24014 
-1.12302 -0.0308751 -1.12168 -1.07286 0.014188 -1.10782 -1.13972 0.0204263 -1.06889 
-1.14765 0.0195874 -1.05239 -1.16394 -0.0696149 -1.09661 -1.12182 -0.024323 -1.04367 
-1.07652 -0.198395 -1.03825 -1.02436 0.179403 -1.01541 -0.862739 0.0954789 -1.09586 
-1.13227 0.0648615 -1.03454 -1.01581 0.0703343 -1.06659 -0.957861 0.0850598 -0.962257 
-1.04263 -0.0288047 -0.877419 -1.04299 -0.00891421 -1.01397 -1.17842 -0.0334707 -0.92719 
-1.14807 0.239581 -0.991945 -1.07712 0.00213365 -0.948921 -1.10884 -0.0282705 -0.941251 
-1.01061 0.0312319 -0.897273 -1.27327 -0.180764 -1.09592 -0.846733 -0.170585 -0.969531 
-0.911098 0.0507405 -0.878584 -1.07131 -0.0200227 -0.903618 -1.08139 -0.0307907 -0.870609 
-0.961267 -0.052721 -0.955579 -1.08722 0.01333 -0.845729 -1.13691 0.0621687 -0.845705 
-1.08173 -0.00681234 -0.788588 -1.02564 0.0286047 -0.849084 -1.01234 -0.0407536 -0.807983 
-1.10239 0.00458917 -0.811458 -0.844083 -0.0139612 -0.890854 -1.08441 -0.0152823 -0.816576 
-1.05704 -0.0221346 -0.790631 -1.35934 0.283724 -0.916537 -1.40563 -0.245875 -0.699975 
-1.16829 0.255555 -0.80839 -1.11276 -0.0174279 -0.74749 -1.08033 0.0265767 -0.749809 
-1.05425 -0.0120332 -0.801908 -1.03138 -0.0136764 -0.731068 -1.04995 -0.403269 -0.855203 
-1.13578 -0.0353817 -0.753349 -0.904145 -0.0864301 -0.646954 -0.914312 -0.0358974 -0.629576 
-1.06996 -0.0198482 -0.72471 -1.02498 0.0387815 -0.563941 -1.05512 0.139585 -0.685246 
-1.10167 0.0688633 -0.545484 -1.15837 0.0255994 -0.647761 -1.16643 -0.0976862 -0.710499 
-1.10472 0.182418 -0.703058 -1.20847 0.100333 -0.646569 -1.07654 0.135325 -0.578912 
-1.34372 0.0478029 -1.02808 -1.03724 -0.0183065 -0.588642 -1.06484 0.024518 -0.588323 
-1.18856 -0.145609 -0.660153 -1.18598 0.0133406 -0.668378 -1.2164 -0.134221 -0.73143 
-1.21534 0.0872638 -0.591699 -0.999721 0.112045 -0.562605 -0.937846 0.0801827 -0.425668 
-1.13635 -0.0480687 -0.490214 -1.01017 -0.0426611 -0.488099 -1.15802 -0.142215 -0.61135 
-1.14454 -0.0502975 -0.645881 -0.968492 -0.0669076 -0.416561 -0.966732 -0.021555 -0.388391 
-1.10431 -0.0607168 -0.46637 -0.980065 0.0184789 -0.44008 -0.975165 -0.00816375 -0.410926 
-1.07217 -0.160013 -0.494418 -0.859968 -0.134624 -0.502876 -1.01864 -0.013741 -0.480713 
-1.01024 -0.0337858 -0.440824 -0.943207 -0.190347 -0.419892 -0.891834 -0.138687 -0.371173 
-0.99889 -0.158846 -0.431178 -1.07813 -0.131601 -0.475676 -1.1388 -0.143592 -0.503347 
-1.11673 -0.0561247 -0.473368 -1.08481 0.0440274 -0.453402 -0.978147 0.0648596 -0.418577 
-0.826739 -0.12893 -0.368319 -1.04246 0.114836 -0.431908 -1.01511 -0.0862385 -0.447293 
-0.910551 0.0576845 -0.371184 -1.05741 0.0738815 -0.464551 -0.994791 0.0239983 -0.42057 
-1.03837 -0.00423626 -0.435766 -1.02592 0.00242777 -0.433191 -0.950711 -0.053064 -0.430518 
-0.98855 -0.249953 -0.433383 -0.974074 0.0128865 -0.403868 -0.919149 -0.0480003 -0.387028 
-0.856265 -0.0555628 -0.368254 -0.899583 -0.0452626 -0.37987 -0.936361 0.0811724 -0.35256 
-0.937193 -0.000207009 -0.377582 -1.01488 -0.0512528 -0.431902 -1.12581 0.0590428 -0.503058 
-1.15399 0.128669 -0.47372 -1.0155 -0.0364209 -0.42334 -1.06511 -0.0169213 -0.446265 
-0.81435 0.0319133 -0.341792 -0.76606 0.122637 -0.327598 -0.783781 0.163468 -0.313811 
-0.907015 -0.00699506 -0.404744 -1.01926 -0.164968 -0.46084 -0.919954 -0.0576972 -0.355337 
-1.03811 -0.140053 -0.449118 -1.13945 0.135957 -0.481769 -1.14259 0.178846 -0.557216 
-1.02033 0.0749299 -0.440131 -0.916806 -0.0138067 -0.369528 -0.879899 0.049663 -0.371975 
-0.887623 -0.0537686 -0.373099 -0.868056 0.102301 -0.376102 -0.900155 0.00517946 -0.379358 
-0.890824 0.157811 -0.38018 -0.894148 0.0214623 -0.365834 -0.896985 0.0212265 -0.379812 
-0.967463 0.0788043 -0.400381 -0.990741 -0.0107979 -0.40962 -0.885992 -0.0263625 -0.36737 
-1.0416 -0.0602385 -0.44558 -1.01938 -0.086858 -0.44907 -0.897954 -0.113625 -0.340461 
-1.02757 -0.170836 -0.374506 -1.08907 0.0640761 -0.470962 -0.931023 0.00150957 -0.290841 
-0.949584 0.0173132 -0.40332 -0.939438 0.0645282 -0.428393 -0.973549 0.0280717 -0.41018 
-0.955475 0.0564308 -0.40753 -0.859912 0.0931577 -0.343854 -0.780724 0.0541499 -0.302419 
-0.906678 -0.0104307 -0.390567 -1.02735 -0.0376752 -0.427216 -0.946963 0.00600777 -0.400247 
-1.04314 -0.152908 -0.473253 -1.06728 0.0776275 -0.481926 -1.07741 0.289016 -0.486422 
-0.810706 -0.0352856 -0.338384 -1.06264 0.0814215 -0.45774 -0.967091 -0.00809962 -0.403539 
-1.06192 -0.0559546 -0.445467 -0.781037 0.00785641 -0.328078 -0.821611 0.0410715 -0.351331 
-0.903727 -0.0195798 -0.383459 -0.985985 -0.0226381 -0.413755 -0.96372 -0.0557642 -0.406154 
-0.982767 -0.0653841 -0.429993 -1.02036 -0.064336 -0.439287 -1.16244 -0.0701188 -0.480769 
-1.17848 0.14101 -0.51061 -0.935817 0.320049 -0.434427 -0.869321 -0.0516028 -0.345457 
-0.952502 -0.0716454 -0.401596 -1.00381 -0.103153 -0.424396 -0.976249 -0.0341389 -0.410065 
-0.889042 -0.0679109 -0.386362 -0.862823 -0.0526509 -0.365034 -0.998501 -0.139249 -0.436157 
-1.02476 -0.080366 -0.44482 -1.09839 0.12623 -0.501515 -1.00767 0.0253715 -0.447258 
-0.934498 -0.00749528 -0.42473 -0.882206 -0.0398895 -0.361519 -0.879171 0.0781184 -0.393938 
-0.870214 0.0260377 -0.395427 -0.824515 -0.0671166 -0.342896 -1.05302 0.077934 -0.463454 
-1.02211 0.0175427 -0.422027 -1.02237 0.0463242 -0.416456 -1.07784 0.010144 -0.446136 
-0.998833 -0.105935 -0.457509 -1.00441 -0.0448075 -0.363619 -1.09045 0.13459 -0.459885 
-1.14037 0.186645 -0.529663 -0.958317 0.0430079 -0.388015 -0.962532 0.0601022 -0.448122 
-0.922549 -0.0388715 -0.402697 -1.03499 -0.00346613 -0.643015 -0.899484 -0.0129529 -0.390507 
-0.755777 -0.0281543 -0.326487 -0.818851 0.0475961 -0.346319 -0.878237 -0.173288 -0.372764 
-0.84403 -0.0150402 -0.35217 -0.828188 0.0698632 -0.338918 -0.829618 0.00896294 -0.384213 
-0.91063 0.0521852 -0.40293 -0.965575 -0.212588 -0.43631 -0.844729 0.0639471 -0.367513 
-0.829222 0.0105536 -0.356025 -0.841217 -0.0631156 -0.363419 -1.07572 0.013156 -0.826807 
-0.814718 -0.0386408 -0.350059 -0.668584 -0.0389794 -0.28681 -1.0043 -0.0212556 -0.416424 
-0.910418 -0.103702 -0.409663 -1.02959 0.122299 -0.498748 -0.954521 0.0376505 -0.398204 
-0.815665 -0.0174779 -0.343743 -0.710613 0.054158 -0.29943 -0.708558 0.0487946 -0.29809 
-0.874783 -0.0255628 -0.374384 -0.698224 0.11166 -0.301213 -0.80566 0.0343999 -0.334511 
-0.790261 0.0579243 -0.331323 -0.855138 0.106464 -0.321044 -0.901826 -0.0461935 -0.386479 
-0.868757 0.108215 -0.454963 -0.757848 -0.000492096 -0.319204 -0.859058 -0.0131738 -0.36544 
-0.806073 0.154598 -0.327759 -0.911318 0.260126 -0.480593 -0.866345 0.0306606 -0.34933 
-0.842559 0.0220934 -0.34073 -1.25712 0.255569 -0.611151 -0.84743 0.0617557 -0.343263 
-0.842938 0.0519421 -0.342465 -1.08468 -0.104826 -0.495412 -1.12051 -0.12165 -0.485128 
-1.09573 -0.178234 -0.488931 -1.07912 -0.0963438 -0.478981 -0.784673 -0.0348112 -0.331382 
-0.830244 -0.0968927 -0.32977 -0.780127 0.0286807 -0.33448 -0.799687 0.0491917 -0.331435 
-0.814147 0.0504118 -0.338347 -0.831232 0.0273221 -0.344885 -0.969265 -0.0790517 -0.426023 
-0.94637 -0.212253 -0.379837 -0.892808 -0.027835 -0.428133 -0.969549 0.112526 -0.737941 
-0.888372 0.0183708 -0.366806 -0.923604 0.0143422 -0.425494 -0.972962 -0.0135643 -0.367189 
-0.895996 -0.0654501 -1.30903 -0.775707 -0.0183662 -0.377678 -0.703462 -0.0305497 -0.299193 
-1.04952 0.110338 -0.421265 -0.893313 -0.211316 -0.468872 -0.399361 -0.342396 -0.507385 
-0.760344 -0.14805 -0.351721 -0.912354 -0.0191823 -0.391882 -0.783905 0.0624464 -0.266655 
-0.779843 0.0245601 -0.32437 -0.495567 -0.119897 -0.605794 -0.767323 -0.0583175 -0.333801 