# vtk DataFile Version 4.0
Generated by LIGGGHTS
ASCII
DATASET POLYDATA
POINTS 50 float
-0.00462371 0.0206347 0.00621961 -0.0131358 0.022667 0.00651864 -0.0124546 0.031784 0.00770171 
-0.0106535 -0.0244251 0.0120046 -0.00894204 -0.016163 0.0140335 -0.00953586 0.00971988 0.0139231 
-0.0190478 0.013684 0.0109106 -0.00174714 0.0260627 0.0105881 -0.0134792 -0.0343741 0.0145705 
-0.00618745 -0.0313193 0.0164057 -0.0299058 -0.00882918 0.0170621 -0.0208226 -0.00599195 0.0151533 
-0.0160886 0.0216478 0.0171078 -0.00408721 -0.0194644 0.0205168 -0.0083641 0.00277185 0.0209813 
-0.00454319 0.0203252 0.0194532 -0.0244429 0.0229939 0.0178701 -0.00174502 0.0344165 0.0196856 
-0.00857183 -0.027925 0.0243285 -0.0118129 -0.0327991 0.0275846 -0.028663 -0.019004 0.0293214 
-0.0202974 -0.0199605 0.0273715 -0.0101549 -0.0158816 0.0286805 -0.0214597 -0.00448395 0.0287706 
-0.020721 -0.0135944 0.0298459 -0.0275046 -0.000700049 0.0305329 -0.0229734 0.000876534 0.0299008 
-0.0235267 0.0224168 0.0304406 -0.0219947 -0.0107694 0.0360741 -0.0240929 0.0291618 0.0336231 
-0.0327631 -0.0200888 0.0381857 -0.0127396 -0.0137041 0.0389911 -0.000459601 -0.00791581 0.0386349 
-0.0160817 -0.000243398 0.039947 -0.0221714 0.00979368 0.0407571 -0.0175025 -0.0228838 0.0430985 
-0.0230202 -0.021037 0.0409788 -0.0105626 -0.00654333 0.0443029 -0.0300659 -0.00019371 0.0414911 
-0.024531 -1.04943e-05 0.0440377 -0.027846 0.00485213 0.0415062 -0.018642 0.00531382 0.0443365 
-0.027916 0.0296421 0.0425407 -0.0159102 -0.0341757 0.0476503 -0.0294843 -0.0242442 0.0470515 
-0.0306884 0.0042356 0.0462567 -0.0178022 0.0256262 0.0461202 -0.021213 0.0304724 0.0469989 
-0.022804 -0.0140579 0.0485217 -0.00180681 0.0181929 0.0517558 
VERTICES 50 100
1 0 
1 1 
1 2 
1 3 
1 4 
1 5 
1 6 
1 7 
1 8 
1 9 
1 10 
1 11 
1 12 
1 13 
1 14 
1 15 
1 16 
1 17 
1 18 
1 19 
1 20 
1 21 
1 22 
1 23 
1 24 
1 25 
1 26 
1 27 
1 28 
1 29 
1 30 
1 31 
1 32 
1 33 
1 34 
1 35 
1 36 
1 37 
1 38 
1 39 
1 40 
1 41 
1 42 
1 43 
1 44 
1 45 
1 46 
1 47 
1 48 
1 49 

POINT_DATA 50
FIELD FieldData 7
id 1 50 int
7 9 11 5 12 8 6 1 3 
13 10 2 4 15 22 14 23 17 
25 20 21 24 18 19 32 16 31 
33 26 34 30 36 27 28 37 50 
35 45 29 49 43 48 44 38 40 
42 46 41 47 39 
type 1 50 int
1 1 1 1 1 1 1 1 1 
1 1 1 1 1 1 1 1 1 
1 1 1 1 1 1 1 1 1 
1 1 1 1 1 1 1 1 1 
1 1 1 1 1 1 1 1 1 
1 1 1 1 1 
i 3 50 int
0 0 0 0 0 0 0 0 0 
0 0 0 0 0 0 0 0 0 
0 0 0 0 0 0 0 0 0 
0 0 0 0 0 0 0 0 0 
0 0 0 0 0 0 0 0 0 
0 0 0 0 0 0 0 0 0 
0 0 0 0 0 0 0 0 0 
0 0 0 0 0 0 0 0 0 
0 0 0 0 0 0 0 0 0 
0 0 0 0 0 0 0 0 0 
0 0 0 0 0 0 0 0 0 
0 0 0 0 0 0 0 0 0 
0 0 0 0 0 0 0 0 0 
0 0 0 0 0 0 0 0 0 
0 0 0 0 0 0 0 0 0 
0 0 0 0 0 0 0 0 0 
0 0 0 0 0 0 
v 3 50 double
0 0 -1.36341 0 0 -1.36125 0 0 -1.35272 
0 0 -1.32113 0 0 -1.30602 0 0 -1.30681 
0 0 -1.32927 0 0 -1.33163 0 0 -1.302 
0 0 -1.28807 0 0 -1.28307 0 0 -1.29759 
0 0 -1.28268 0 0 -1.25638 0 0 -1.25275 
0 0 -1.26462 0 0 -1.27689 0 0 -1.26286 
0 0 -1.22627 0 0 -1.19988 0 0 -1.18565 
0 0 -1.20164 0 0 -1.19095 0 0 -1.19017 
0 0 -1.18124 0 0 -1.17555 0 0 -1.18085 
0 0 -1.17633 0 0 -1.12836 0 0 -1.14946 
0 0 -1.10982 0 0 -1.10276 0 0 -1.1059 
0 0 -1.09423 0 0 -1.08687 0 0 -1.06558 
0 0 -1.08491 0 0 -1.0544 0 0 -1.08029 
0 0 -1.05685 0 0 -1.0801 0 0 -1.0541 
0 0 -1.07068 0 0 -1.02281 0 0 -1.0285 
0 0 -1.03605 0 0 -1.03733 0 0 -1.02899 
0 0 -1.01437 0 0 -1 
f 3 50 double
0 0 -0.000346714 0 0 -0.000346714 0 0 -0.000346714 
0 0 -0.00160516 0 0 -0.000346714 0 0 -0.000346714 
0 0 -0.000346714 0 0 -0.00160516 0 0 -0.00160516 
0 0 -0.000346714 0 0 -0.000346714 0 0 -0.00160516 
0 0 -0.00160516 0 0 -0.00160516 0 0 -0.000346714 
0 0 -0.00160516 0 0 -0.000346714 0 0 -0.00160516 
0 0 -0.000346714 0 0 -0.000346714 0 0 -0.000346714 
0 0 -0.000346714 0 0 -0.000346714 0 0 -0.000346714 
0 0 -0.000346714 0 0 -0.00160516 0 0 -0.000346714 
0 0 -0.000346714 0 0 -0.00160516 0 0 -0.000346714 
0 0 -0.000346714 0 0 -0.000346714 0 0 -0.00160516 
0 0 -0.00160516 0 0 -0.000346714 0 0 -0.000346714 
0 0 -0.000346714 0 0 -0.000346714 0 0 -0.00160516 
0 0 -0.000346714 0 0 -0.000346714 0 0 -0.000346714 
0 0 -0.000346714 0 0 -0.00160516 0 0 -0.00160516 
0 0 -0.000346714 0 0 -0.000346714 0 0 -0.00160516 
0 0 -0.000346714 0 0 0 
radius 1 50 double
0.0015 0.0015 0.0015 0.0025 0.0015 0.0015 0.0015 0.0025 0.0025 
0.0015 0.0015 0.0025 0.0025 0.0025 0.0015 0.0025 0.0015 0.0025 
0.0015 0.0015 0.0015 0.0015 0.0015 0.0015 0.0015 0.0025 0.0015 
0.0015 0.0025 0.0015 0.0015 0.0015 0.0025 0.0025 0.0015 0.0015 
0.0015 0.0015 0.0025 0.0015 0.0015 0.0015 0.0015 0.0025 0.0025 
0.0015 0.0015 0.0025 0.0015 0.0025 
omega 3 50 double
0 0 0 0 0 0 0 0 0 
0 0 0 0 0 0 0 0 0 
0 0 0 0 0 0 0 0 0 
0 0 0 0 0 0 0 0 0 
0 0 0 0 0 0 0 0 0 
0 0 0 0 0 0 0 0 0 
0 0 0 0 0 0 0 0 0 
0 0 0 0 0 0 0 0 0 
0 0 0 0 0 0 0 0 0 
0 0 0 0 0 0 0 0 0 
0 0 0 0 0 0 0 0 0 
0 0 0 0 0 0 0 0 0 
0 0 0 0 0 0 0 0 0 
0 0 0 0 0 0 0 0 0 
0 0 0 0 0 0 0 0 0 
0 0 0 0 0 0 0 0 0 
0 0 0 0 0 0 
