# vtk DataFile Version 4.0
Generated by LIGGGHTS
ASCII
DATASET POLYDATA
POINTS 835 float
-0.212682 0.0209776 -0.185705 -0.202263 -0.00477313 -0.190154 -0.208812 -0.0454746 -0.185897 
-0.466697 -0.0062571 -0.398566 -0.460487 0.00379374 -0.397857 -0.485991 -0.00113332 -0.395906 
-0.464376 0.00492514 -0.395245 -0.477802 0.00864992 -0.394374 -0.461283 0.00900256 -0.393044 
-0.487897 0.0491907 -0.39637 -0.464299 -0.0101217 -0.389941 -0.467717 -0.00392649 -0.390187 
-0.462186 5.58125e-05 -0.391077 -0.468567 0.0340849 -0.387894 -0.463388 -0.0149817 -0.385572 
-0.465232 -0.00149728 -0.384416 -0.450468 0.00161382 -0.381837 -0.443529 0.0206873 -0.379609 
-0.469693 -0.00733866 -0.375351 -0.44076 0.0073917 -0.377074 -0.459642 -0.00524697 -0.373514 
-0.461565 0.020588 -0.371839 -0.481788 0.0440679 -0.372907 -0.4555 -0.00773619 -0.367738 
-0.433249 0.00245276 -0.369873 -0.448656 0.00636656 -0.370201 -0.441931 0.0257407 -0.370958 
-0.454252 -0.0158218 -0.367044 -0.449778 0.0218311 -0.365655 -0.448656 0.0104288 -0.362236 
-0.436567 0.00694496 -0.359905 -0.444577 0.0131208 -0.358008 -0.447149 0.0170637 -0.359374 
-0.452053 -0.0148268 -0.355583 -0.443684 0.0177257 -0.353581 -0.447694 -0.0186166 -0.350569 
-0.437378 -0.00204413 -0.35146 -0.429854 -0.00133594 -0.350974 -0.444579 0.00791213 -0.351814 
-0.463693 0.0180299 -0.350247 -0.449946 -0.0398798 -0.348832 -0.427787 0.00127178 -0.345911 
-0.448232 0.00336302 -0.349018 -0.437039 0.0039985 -0.348311 -0.432829 0.00868713 -0.348786 
-0.442011 0.0179323 -0.343364 -0.443848 -0.0129708 -0.339849 -0.426919 -0.00553178 -0.342166 
-0.423739 -0.00472701 -0.339113 -0.420666 -0.00705565 -0.336455 -0.43448 0.00357855 -0.335675 
-0.470557 0.00791833 -0.33823 -0.41624 0.00856058 -0.337732 -0.426104 0.0320352 -0.336489 
-0.422923 -0.0166996 -0.334195 -0.417395 -0.0121139 -0.335182 -0.42071 0.00505424 -0.334777 
-0.416298 -0.0139112 -0.328196 -0.420936 -0.010153 -0.331135 -0.414652 -0.00747744 -0.328784 
-0.418536 0.00495866 -0.328116 -0.420386 0.0178687 -0.329489 -0.43097 -0.0265872 -0.325602 
-0.430148 -0.0222182 -0.326779 -0.423912 -0.0217012 -0.325243 -0.423187 -0.00138882 -0.327278 
-0.413247 0.00578082 -0.324703 -0.430595 0.0103694 -0.325233 -0.421158 0.0122537 -0.324847 
-0.451075 0.0588351 -0.324091 -0.450928 -0.0442888 -0.319226 -0.425954 -0.00149329 -0.319161 
-0.405177 0.0345047 -0.313377 -0.401009 -0.00583848 -0.311115 -0.399572 0.0106065 -0.311198 
-0.413688 -0.0105212 -0.307591 -0.408823 0.0182361 -0.30623 -0.407247 -0.0016496 -0.304372 
-0.405691 -0.0137476 -0.300344 -0.402447 0.0114522 -0.300272 -0.395517 0.013753 -0.301411 
-0.401944 -0.0163124 -0.29653 -0.391541 -0.00959975 -0.298527 -0.402389 -0.0261549 -0.294558 
-0.394257 0.0105354 -0.288529 -0.391686 0.0235605 -0.288776 -0.390277 -0.0260919 -0.287321 
-0.37527 -0.00873094 -0.287936 -0.388783 -0.000516368 -0.286562 -0.372504 0.00751703 -0.28708 
-0.387391 -0.00697698 -0.28114 -0.383751 -0.00334472 -0.281533 -0.376026 -0.000202175 -0.280879 
-0.37919 0.00248537 -0.283807 -0.385934 0.012423 -0.282326 -0.378921 0.00323193 -0.279294 
-0.375452 0.00516572 -0.278019 -0.393531 0.0189134 -0.280004 -0.374862 -0.0115591 -0.274869 
-0.378233 -0.00204764 -0.27343 -0.370403 0.0199571 -0.273419 -0.371117 -0.013275 -0.269465 
-0.371413 -0.00814558 -0.271037 -0.37518 -0.00683708 -0.272916 -0.357062 0.000854574 -0.269794 
-0.371999 0.0108708 -0.272874 -0.366643 0.015979 -0.270247 -0.370164 0.0197115 -0.270083 
-0.377431 0.0300021 -0.273183 -0.375344 -0.0126652 -0.268994 -0.369835 -0.00485495 -0.269257 
-0.366627 0.00556861 -0.268276 -0.363158 0.0152238 -0.26597 -0.382316 0.0340035 -0.267086 
-0.387162 0.0485005 -0.269511 -0.359508 -0.00989502 -0.262227 -0.363266 -0.00464756 -0.262728 
-0.351061 -0.00126897 -0.263619 -0.353281 0.00232585 -0.263533 -0.359267 0.00895406 -0.262643 
-0.365342 0.0218644 -0.264826 -0.356589 -0.0102925 -0.259963 -0.356527 -0.00569289 -0.259495 
-0.35858 -0.00121997 -0.260726 -0.357617 0.0164213 -0.2604 -0.351322 0.0154525 -0.260202 
-0.359252 0.0267431 -0.260056 -0.358058 -0.0265434 -0.256818 -0.352699 -0.0200392 -0.256078 
-0.349095 -0.0151768 -0.254679 -0.346922 -0.00664545 -0.254562 -0.346344 0.00833297 -0.254644 
-0.350531 0.0144171 -0.256909 -0.350455 0.0173802 -0.255296 -0.354534 0.0183364 -0.256965 
-0.352451 0.0259254 -0.256298 -0.345362 -0.0179815 -0.25253 -0.340311 -0.00142984 -0.251182 
-0.34434 0.00224413 -0.254191 -0.34191 0.00310979 -0.252172 -0.340474 0.00995607 -0.250757 
-0.348071 0.0133629 -0.253923 -0.346567 0.018112 -0.25328 -0.351669 0.0234059 -0.252571 
-0.360293 0.0319774 -0.254448 -0.348192 -0.0309837 -0.248995 -0.338579 -0.0193988 -0.247833 
-0.333738 -0.00704604 -0.247031 -0.338085 0.0023194 -0.249166 -0.33896 0.00601618 -0.250537 
-0.338807 0.0181449 -0.248892 -0.383983 0.0590154 -0.249255 -0.34002 -0.0321067 -0.244132 
-0.333125 -0.0109548 -0.245445 -0.327617 -0.0107811 -0.243597 -0.328767 -0.00717684 -0.24383 
-0.330361 -0.00459478 -0.245232 -0.334019 0.00101322 -0.246058 -0.331315 0.0109194 -0.246273 
-0.331862 0.0142007 -0.244782 -0.32705 -0.021152 -0.24051 -0.321159 -0.0169596 -0.239985 
-0.320219 -0.0123339 -0.240379 -0.325194 -0.00828813 -0.242728 -0.326357 -0.00369132 -0.242447 
-0.318824 0.000654047 -0.240541 -0.323947 0.00394651 -0.240541 -0.326555 0.020707 -0.24156 
-0.330512 -0.0299926 -0.239547 -0.324791 -0.0255285 -0.238732 -0.322067 -0.0222726 -0.239336 
-0.315213 -0.0153574 -0.237706 -0.312376 -0.0164456 -0.236359 -0.311114 -0.0119315 -0.236459 
-0.314899 0.00713812 -0.238476 -0.311032 -0.0257796 -0.232763 -0.309936 -0.0190171 -0.235017 
-0.309828 -0.0144801 -0.235502 -0.3081 -0.00972606 -0.234469 -0.302397 0.00422578 -0.232308 
-0.306917 0.0115434 -0.233751 -0.307554 0.0171776 -0.233144 -0.309872 0.0205666 -0.234551 
-0.316132 0.0279237 -0.235491 -0.312611 0.0304203 -0.233196 -0.31615 -0.0361271 -0.23159 
-0.302154 -0.0281955 -0.229682 -0.298948 -0.0211252 -0.228836 -0.293913 0.00701733 -0.229638 
-0.297298 0.0155595 -0.230141 -0.297228 -0.0291841 -0.2274 -0.293601 -0.0211891 -0.227806 
-0.29028 -0.0187315 -0.226883 -0.293373 -0.0122346 -0.228003 -0.284886 -0.00912971 -0.225859 
-0.287875 -0.00621339 -0.226221 -0.286529 -0.000861157 -0.22683 -0.282817 -0.00313408 -0.225276 
-0.28872 0.00283301 -0.226629 -0.284198 0.00439826 -0.2257 -0.283904 0.00752729 -0.225381 
-0.290306 0.0159739 -0.226184 -0.297832 0.0197559 -0.228586 -0.289763 0.0204912 -0.225184 
-0.293597 0.0242497 -0.226272 -0.318042 -0.0541164 -0.222605 -0.310197 -0.0502056 -0.222212 
-0.287093 -0.0159508 -0.224957 -0.279637 -0.0170034 -0.222766 -0.277165 -0.0154898 -0.221896 
-0.287925 -0.0102847 -0.223282 -0.277733 -0.00962633 -0.222796 -0.280452 -0.00651313 -0.224164 
-0.274963 -0.00436247 -0.221922 -0.28018 -0.00348313 -0.22388 -0.279522 -0.000367119 -0.223924 
-0.277443 -0.00233274 -0.223035 -0.274897 -0.00100285 -0.222011 -0.28206 0.000782385 -0.225038 
-0.278304 0.00329497 -0.223291 -0.275846 0.00186842 -0.222322 -0.281628 0.00538698 -0.22441 
-0.281251 0.00910942 -0.224177 -0.286031 0.0131749 -0.224839 -0.282122 0.0122629 -0.224358 
-0.279121 0.0128374 -0.221748 -0.282928 0.0166199 -0.223714 -0.282904 0.0215873 -0.223154 
-0.27592 -0.0185239 -0.220931 -0.273771 -0.0164182 -0.22039 -0.270899 -0.0153875 -0.219294 
-0.298363 -0.0143641 -0.222681 -0.269082 -0.0129896 -0.218798 -0.298633 -0.00881027 -0.220946 
-0.27116 -0.00990701 -0.220012 -0.271707 -0.00643894 -0.220477 -0.267332 -0.00104318 -0.21883 
-0.271909 0.000516087 -0.219643 -0.267767 0.00220097 -0.218836 -0.276789 0.00645973 -0.221371 
-0.271564 0.00572423 -0.220348 -0.276603 0.0160216 -0.221474 -0.272688 0.0158213 -0.219868 
-0.284478 0.0297353 -0.221898 -0.287939 0.0401205 -0.219835 -0.2767 -0.0344881 -0.215989 
-0.2634 -0.0192164 -0.21559 -0.260202 -0.0119209 -0.215072 -0.263744 0.0013193 -0.216233 
-0.260805 0.00709031 -0.215743 -0.267465 0.0127358 -0.218188 -0.266014 0.0203925 -0.216361 
-0.269267 0.0275186 -0.215092 -0.268553 0.031662 -0.214759 -0.273377 0.0313437 -0.215677 
-0.292049 0.0493 -0.216058 -0.287667 -0.0542084 -0.21238 -0.28336 -0.0479618 -0.213262 
-0.263116 -0.0266818 -0.212819 -0.259091 -0.0237263 -0.212779 -0.255648 -0.0115581 -0.212233 
-0.258845 -0.00920446 -0.214072 -0.257898 -0.00638808 -0.214632 -0.251122 -0.00279066 -0.211944 
-0.258398 0.00274791 -0.213833 -0.254141 0.000199806 -0.212152 -0.251384 0.00364555 -0.211922 
-0.256939 0.00690272 -0.21412 -0.254538 0.00520446 -0.21319 -0.258411 0.0160835 -0.212763 
-0.2613 0.0260595 -0.213341 -0.266046 0.0299277 -0.213749 -0.259672 -0.0285941 -0.209774 
-0.253206 -0.0279484 -0.2094 -0.249142 -0.007498 -0.210888 -0.262065 -0.00213715 -0.209424 
-0.244151 -0.00130145 -0.209051 -0.249182 0.00542913 -0.210908 -0.244804 0.00881966 -0.208943 
-0.249858 0.0135293 -0.210643 -0.246558 0.011175 -0.209586 -0.251788 0.0163147 -0.211034 
-0.245337 0.0184747 -0.208004 -0.255876 0.0228344 -0.210672 -0.252974 0.0264192 -0.208672 
-0.255751 0.0292552 -0.210181 -0.245587 -0.0268191 -0.206651 -0.239295 -0.022809 -0.204796 
-0.243402 -0.00698695 -0.20741 -0.238644 -0.00320106 -0.20668 -0.235744 -0.000626141 -0.205455 
-0.242603 0.00276564 -0.20716 -0.238486 -0.000145736 -0.2066 -0.233897 0.00340111 -0.204554 
-0.234185 0.00647089 -0.204574 -0.245141 0.0144631 -0.20742 -0.243322 0.0213445 -0.205667 
-0.25567 0.0388901 -0.207322 -0.232122 -0.0165259 -0.202662 -0.229676 -0.0126924 -0.201678 
-0.245444 -0.00918507 -0.204668 -0.231583 -0.00801877 -0.202253 -0.227363 -0.0096452 -0.200995 
-0.243318 0.0123871 -0.203137 -0.25115 0.0174426 -0.2015 -0.234286 0.0236843 -0.202685 
-0.229224 0.0215749 -0.200866 -0.222133 -0.0231669 -0.197525 -0.227245 -0.0207113 -0.200167 
-0.228911 -0.0170373 -0.199864 -0.219756 -0.00923648 -0.198263 -0.223163 0.00163296 -0.200036 
-0.222406 0.00715017 -0.198531 -0.21937 0.00443053 -0.198403 -0.229675 0.0251663 -0.200388 
-0.234465 0.0342616 -0.200109 -0.242411 0.0417788 -0.19966 -0.216128 -0.0246928 -0.194732 
[...]
POINT_DATA 835
FIELD FieldData 7
id 1 835 int
774 649 646 285 334 336 411 354 384 
339 376 226 331 457 329 291 173 392 
398 438 328 296 439 335 402 441 362 
456 367 326 395 298 419 371 369 386 
377 248 468 496 535 393 414 481 429 
407 360 426 388 273 421 584 424 448 
358 349 374 409 432 415 394 423 523 
452 437 477 447 446 410 510 618 400 
490 499 382 443 399 442 470 475 276 
449 385 195 461 540 467 462 387 427 
464 343 465 428 483 513 458 561 430 
469 473 484 472 478 353 471 502 459 
494 460 434 480 357 526 436 351 408 
611 550 440 431 476 422 433 453 390 
397 568 418 479 435 466 416 417 533 
525 363 500 451 375 450 368 509 537 
573 501 412 554 599 340 615 596 630 
455 582 492 505 558 364 583 522 564 
603 645 482 366 507 541 560 508 543 
619 361 498 530 420 515 493 497 445 
574 572 566 578 719 520 518 546 538 
656 581 489 553 559 514 495 531 454 
444 556 529 548 534 809 516 676 677 
511 487 527 571 576 545 542 503 551 
589 506 524 488 491 528 591 549 588 
521 474 635 565 519 602 662 604 512 
563 594 486 485 698 562 532 517 609 
683 620 702 608 614 577 606 557 655 
742 590 624 586 648 675 547 627 650 
555 661 711 610 587 580 658 552 598 
629 734 647 775 595 715 621 674 570 
654 680 633 681 575 600 685 628 699 
613 707 607 585 632 631 671 625 536 
692 682 694 726 612 736 716 652 644 
673 592 263 637 666 617 640 634 641 
725 690 735 712 567 669 616 643 721 
812 636 544 601 597 622 639 638 657 
700 691 653 697 688 703 686 623 539 
727 626 667 910 1006 877 739 665 642 
981 569 704 668 593 710 744 713 660 
670 678 663 651 784 991 684 720 760 
755 717 679 724 701 800 664 754 776 
730 718 794 741 696 757 747 782 672 
579 822 714 729 827 740 709 777 769 
810 753 732 695 823 706 788 756 816 
750 826 708 790 748 738 867 789 792 
780 722 733 803 737 752 771 839 838 
805 758 723 781 765 705 693 801 764 
766 814 866 687 728 853 846 833 773 
828 845 875 808 928 820 785 840 837 
778 762 903 743 819 849 783 751 795 
836 797 798 898 746 787 689 759 856 
768 843 900 731 848 772 829 874 813 
942 763 811 832 854 817 862 767 889 
796 852 958 908 892 791 871 891 807 
841 872 882 830 799 786 806 873 858 
824 911 831 761 818 909 888 956 815 
868 883 821 863 804 922 851 899 870 
859 931 902 847 897 793 857 869 880 
855 878 913 940 844 659 957 918 749 
884 919 881 887 894 941 779 879 912 
907 935 904 825 890 923 864 770 835 
842 921 865 861 896 954 860 916 924 
885 946 876 920 893 834 933 964 850 
925 959 943 936 938 895 901 971 1181 
1177 1178 915 1180 945 930 1188 905 979 
951 976 949 986 972 1004 967 983 886 
906 997 962 605 929 1017 1019 926 1003 
1011 968 950 944 1009 977 965 1014 985 
953 948 1028 1034 989 969 1021 961 937 
1032 1040 914 1012 927 1029 932 978 947 
984 1042 1031 975 994 966 939 955 1026 
980 1025 1030 1027 1015 1010 1005 952 992 
1013 934 1018 988 1038 973 1016 1022 970 
960 1007 1023 996 1035 987 1008 1001 1000 
999 1002 982 995 1047 1024 1033 1036 974 
993 1039 1045 1020 1037 917 963 998 990 
1041 1043 1044 1046 1052 1048 1049 1051 1053 
1059 1057 1056 802 1054 1050 745 1058 1055 
1065 1066 1062 1061 1068 1060 1070 1071 1064 
1069 1072 1063 1067 1075 1078 1076 1073 1077 
1085 1074 1082 1081 1084 1083 1080 1079 1092 
1094 1096 1091 1090 1087 1088 1086 1089 1097 
1098 1095 1093 1105 1108 1103 1099 1107 1101 
1110 1104 1102 1109 1111 1106 1100 1123 1117 
1122 1119 1116 1114 1118 1120 1124 1131 1112 
1113 1115 1121 1137 1135 1128 1127 1126 1130 
1129 1133 1132 1125 1134 1136 1144 1141 1142 
1140 1143 1148 1138 1149 1145 1146 1139 1147 
1150 1156 1160 1163 1157 1154 1152 1161 1158 
1153 1162 1159 1151 1170 1155 1169 1168 1173 
1167 1174 1165 1164 1166 1171 1172 1175 1187 
1179 1185 1182 1184 1176 1186 1183 
type 1 835 int
1 1 1 1 1 1 1 1 1 
1 1 1 1 1 1 1 1 1 
1 1 1 1 1 1 1 1 1 
1 1 1 1 1 1 1 1 1 
1 1 1 1 1 1 1 1 1 
1 1 1 1 1 1 1 1 1 
1 1 1 1 1 1 1 1 1 
1 1 1 1 1 1 1 1 1 
1 1 1 1 1 1 1 1 1 
1 1 1 1 1 1 1 1 1 
1 1 1 1 1 1 1 1 1 
1 1 1 1 1 1 1 1 1 
1 1 1 1 1 1 1 1 1 
1 1 1 1 1 1 1 1 1 
1 1 1 1 1 1 1 1 1 
1 1 1 1 1 1 1 1 1 
1 1 1 1 1 1 1 1 1 
1 1 1 1 1 1 1 1 1 
1 1 1 1 1 1 1 1 1 
1 1 1 1 1 1 1 1 1 
1 1 1 1 1 1 1 1 1 
1 1 1 1 1 1 1 1 1 
1 1 1 1 1 1 1 1 1 
1 1 1 1 1 1 1 1 1 
1 1 1 1 1 1 1 1 1 
1 1 1 1 1 1 1 1 1 
1 1 1 1 1 1 1 1 1 
1 1 1 1 1 1 1 1 1 
1 1 1 1 1 1 1 1 1 
1 1 1 1 1 1 1 1 1 
1 1 1 1 1 1 1 1 1 
1 1 1 1 1 1 1 1 1 
1 1 1 1 1 1 1 1 1 
1 1 1 1 1 1 1 1 1 
1 1 1 1 1 1 1 1 1 
1 1 1 1 1 1 1 1 1 
1 1 1 1 1 1 1 1 1 
1 1 1 1 1 1 1 1 1 
1 1 1 1 1 1 1 1 1 
1 1 1 1 1 1 1 1 1 
1 1 1 1 1 1 1 1 1 
1 1 1 1 1 1 1 1 1 
1 1 1 1 1 1 1 1 1 
1 1 1 1 1 1 1 1 1 
1 1 1 1 1 1 1 1 1 
1 1 1 1 1 1 1 1 1 
1 1 1 1 1 1 1 1 1 
1 1 1 1 1 1 1 1 1 
1 1 1 1 1 1 1 1 1 
1 1 1 1 1 1 1 1 1 
1 1 1 1 1 1 1 1 1 
1 1 1 1 1 1 1 1 1 
1 1 1 1 1 1 1 1 1 
1 1 1 1 1 1 1 1 1 
1 1 1 1 1 1 1 1 1 
1 1 1 1 1 1 1 1 1 
1 1 1 1 1 1 1 1 1 
1 1 1 1 1 1 1 1 1 
1 1 1 1 1 1 1 1 1 
1 1 1 1 1 1 1 1 1 
1 1 1 1 1 1 1 1 1 
1 1 1 1 1 1 1 1 1 
1 1 1 1 1 1 1 1 1 
1 1 1 1 1 1 1 1 1 
1 1 1 1 1 1 1 1 1 
1 1 1 1 1 1 1 1 1 
1 1 1 1 1 1 1 1 1 
1 1 1 1 1 1 1 1 1 
1 1 1 1 1 1 1 1 1 
1 1 1 1 1 1 1 1 1 
1 1 1 1 1 1 1 1 1 
1 1 1 1 1 1 1 1 1 
1 1 1 1 1 1 1 1 1 
1 1 1 1 1 1 1 1 1 
1 1 1 1 1 1 1 1 1 
1 1 1 1 1 1 1 1 1 
1 1 1 1 1 1 1 1 1 
1 1 1 1 1 1 1 1 1 
1 1 1 1 1 1 1 1 1 
1 1 1 1 1 1 1 1 1 
1 1 1 1 1 1 1 1 1 
1 1 1 1 1 1 1 1 1 
1 1 1 1 1 1 1 1 1 
1 1 1 1 1 1 1 1 1 
1 1 1 1 1 1 1 1 1 
1 1 1 1 1 1 1 1 1 
1 1 1 1 1 1 1 1 1 
1 1 1 1 1 1 1 1 1 
1 1 1 1 1 1 1 1 1 
1 1 1 1 1 1 1 1 1 
1 1 1 1 1 1 1 1 1 
1 1 1 1 1 1 1 1 1 
1 1 1 1 1 1 1 
i 3 835 int
0 0 0 0 0 0 0 0 0 
0 0 0 0 0 0 0 0 0 
0 0 0 0 0 0 0 0 0 
0 0 0 0 0 0 0 0 0 
0 0 0 0 0 0 0 0 0 
0 0 0 0 0 0 0 0 0 
0 0 0 0 0 0 0 0 0 
0 0 0 0 0 0 0 0 0 
0 0 0 0 0 0 0 0 0 
0 0 0 0 0 0 0 0 0 
0 0 0 0 0 0 0 0 0 
0 0 0 0 0 0 0 0 0 
0 0 0 0 0 0 0 0 0 
0 0 0 0 0 0 0 0 0 
0 0 0 0 0 0 0 0 0 
0 0 0 0 0 0 0 0 0 
0 0 0 0 0 0 0 0 0 
0 0 0 0 0 0 0 0 0 
0 0 0 0 0 0 0 0 0 
0 0 0 0 0 0 0 0 0 
0 0 0 0 0 0 0 0 0 
0 0 0 0 0 0 0 0 0 
0 0 0 0 0 0 0 0 0 
0 0 0 0 0 0 0 0 0 
0 0 0 0 0 0 0 0 0 
0 0 0 0 0 0 0 0 0 
0 0 0 0 0 0 0 0 0 
0 0 0 0 0 0 0 0 0 
0 0 0 0 0 0 0 0 0 
0 0 0 0 0 0 0 0 0 
0 0 0 0 0 0 0 0 0 
0 0 0 0 0 0 0 0 0 
0 0 0 0 0 0 0 0 0 
0 0 0 0 0 0 0 0 0 
0 0 0 0 0 0 0 0 0 
0 0 0 0 0 0 0 0 0 
0 0 0 0 0 0 0 0 0 
0 0 0 0 0 0 0 0 0 
0 0 0 0 0 0 0 0 0 
0 0 0 0 0 0 0 0 0 
0 0 0 0 0 0 0 0 0 
0 0 0 0 0 0 0 0 0 
0 0 0 0 0 0 0 0 0 
0 0 0 0 0 0 0 0 0 
0 0 0 0 0 0 0 0 0 
0 0 0 0 0 0 0 0 0 
0 0 0 0 0 0 0 0 0 
0 0 0 0 0 0 0 0 0 
0 0 0 0 0 0 0 0 0 
0 0 0 0 0 0 0 0 0 
0 0 0 0 0 0 0 0 0 
0 0 0 0 0 0 0 0 0 
0 0 0 0 0 0 0 0 0 
0 0 0 0 0 0 0 0 0 
0 0 0 0 0 0 0 0 0 
0 0 0 0 0 0 0 0 0 
0 0 0 0 0 0 0 0 0 
0 0 0 0 0 0 0 0 0 
0 0 0 0 0 0 0 0 0 
0 0 0 0 0 0 0 0 0 
0 0 0 0 0 0 0 0 0 
0 0 0 0 0 0 0 0 0 
0 0 0 0 0 0 0 0 0 
0 0 0 0 0 0 0 0 0 
0 0 0 0 0 0 0 0 0 
0 0 0 0 0 0 0 0 0 
0 0 0 0 0 0 0 0 0 
0 0 0 0 0 0 0 0 0 
0 0 0 0 0 0 0 0 0 
0 0 0 0 0 0 0 0 0 
0 0 0 0 0 0 0 0 0 
0 0 0 0 0 0 0 0 0 
0 0 0 0 0 0 0 0 0 
0 0 0 0 0 0 0 0 0 
0 0 0 0 0 0 0 0 0 
0 0 0 0 0 0 0 0 0 
0 0 0 0 0 0 0 0 0 
0 0 0 0 0 0 0 0 0 
0 0 0 0 0 0 0 0 0 
0 0 0 0 0 0 0 0 0 
0 0 0 0 0 0 0 0 0 
0 0 0 0 0 0 0 0 0 
0 0 0 0 0 0 0 0 0 
0 0 0 0 0 0 0 0 0 
0 0 0 0 0 0 0 0 0 
0 0 0 0 0 0 0 0 0 
0 0 0 0 0 0 0 0 0 
0 0 0 0 0 0 0 0 0 
0 0 0 0 0 0 0 0 0 
0 0 0 0 0 0 0 0 0 
0 0 0 0 0 0 0 0 0 
0 0 0 0 0 0 0 0 0 
0 0 0 0 0 0 0 0 0 
0 0 0 0 0 0 0 0 0 
0 0 0 0 0 0 0 0 0 
0 0 0 0 0 0 0 0 0 
0 0 0 0 0 0 0 0 0 
0 0 0 0 0 0 0 0 0 
0 0 0 0 0 0 0 0 0 
0 0 0 0 0 0 0 0 0 
0 0 0 0 0 0 0 0 0 
0 0 0 0 0 0 0 0 0 
0 0 0 0 0 0 0 0 0 
0 0 0 0 0 0 0 0 0 
0 0 0 0 0 0 0 0 0 
0 0 0 0 0 0 0 0 0 
0 0 0 0 0 0 0 0 0 
0 0 0 0 0 0 0 0 0 
0 0 0 0 0 0 0 0 0 
0 0 0 0 0 0 0 0 0 
0 0 0 0 0 0 0 0 0 
0 0 0 0 0 0 0 0 0 
0 0 0 0 0 0 0 0 0 
0 0 0 0 0 0 0 0 0 
0 0 0 0 0 0 0 0 0 
0 0 0 0 0 0 0 0 0 
0 0 0 0 0 0 0 0 0 
0 0 0 0 0 0 0 0 0 
0 0 0 0 0 0 0 0 0 
0 0 0 0 0 0 0 0 0 
0 0 0 0 0 0 0 0 0 
0 0 0 0 0 0 0 0 0 
0 0 0 0 0 0 0 0 0 
0 0 0 0 0 0 0 0 0 
0 0 0 0 0 0 0 0 0 
0 0 0 0 0 0 0 0 0 
0 0 0 0 0 0 0 0 0 
0 0 0 0 0 0 0 0 0 
0 0 0 0 0 0 0 0 0 
0 0 0 0 0 0 0 0 0 
0 0 0 0 0 0 0 0 0 
0 0 0 0 0 0 0 0 0 
0 0 0 0 0 0 0 0 0 
0 0 0 0 0 0 0 0 0 
0 0 0 0 0 0 0 0 0 
0 0 0 0 0 0 0 0 0 
0 0 0 0 0 0 0 0 0 
0 0 0 0 0 0 0 0 0 
0 0 0 0 0 0 0 0 0 
0 0 0 0 0 0 0 0 0 
0 0 0 0 0 0 0 0 0 
0 0 0 0 0 0 0 0 0 
0 0 0 0 0 0 0 0 0 
0 0 0 0 0 0 0 0 0 
0 0 0 0 0 0 0 0 0 
0 0 0 0 0 0 0 0 0 
0 0 0 0 0 0 0 0 0 
0 0 0 0 0 0 0 0 0 
0 0 0 0 0 0 0 0 0 
0 0 0 0 0 0 0 0 0 
0 0 0 0 0 0 0 0 0 
0 0 0 0 0 0 0 0 0 
0 0 0 0 0 0 0 0 0 
0 0 0 0 0 0 0 0 0 
0 0 0 0 0 0 0 0 0 
0 0 0 0 0 0 0 0 0 
0 0 0 0 0 0 0 0 0 
0 0 0 0 0 0 0 0 0 
0 0 0 0 0 0 0 0 0 
0 0 0 0 0 0 0 0 0 
0 0 0 0 0 0 0 0 0 
0 0 0 0 0 0 0 0 0 
0 0 0 0 0 0 0 0 0 
0 0 0 0 0 0 0 0 0 
0 0 0 0 0 0 0 0 0 
0 0 0 0 0 0 0 0 0 
0 0 0 0 0 0 0 0 0 
0 0 0 0 0 0 0 0 0 
0 0 0 0 0 0 0 0 0 
0 0 0 0 0 0 0 0 0 
0 0 0 0 0 0 0 0 0 
0 0 0 0 0 0 0 0 0 
0 0 0 0 0 0 0 0 0 
0 0 0 0 0 0 0 0 0 
0 0 0 0 0 0 0 0 0 
0 0 0 0 0 0 0 0 0 
0 0 0 0 0 0 0 0 0 
0 0 0 0 0 0 0 0 0 
0 0 0 0 0 0 0 0 0 
0 0 0 0 0 0 0 0 0 
0 0 0 0 0 0 0 0 0 
0 0 0 0 0 0 0 0 0 
0 0 0 0 0 0 0 0 0 
0 0 0 0 0 0 0 0 0 
0 0 0 0 0 0 0 0 0 
0 0 0 0 0 0 0 0 0 
0 0 0 0 0 0 0 0 0 
0 0 0 0 0 0 0 0 0 
0 0 0 0 0 0 0 0 0 
0 0 0 0 0 0 0 0 0 
0 0 0 0 0 0 0 0 0 
0 0 0 0 0 0 0 0 0 
0 0 0 0 0 0 0 0 0 
0 0 0 0 0 0 0 0 0 
0 0 0 0 0 0 0 0 0 
0 0 0 0 0 0 0 0 0 
0 0 0 0 0 0 0 0 0 
0 0 0 0 0 0 0 0 0 
0 0 0 0 0 0 0 0 0 
0 0 0 0 0 0 0 0 0 
0 0 0 0 0 0 0 0 0 
0 0 0 0 0 0 0 0 0 
0 0 0 0 0 0 0 0 0 
0 0 0 0 0 0 0 0 0 
0 0 0 0 0 0 0 0 0 
0 0 0 0 0 0 0 0 0 
0 0 0 0 0 0 0 0 0 
0 0 0 0 0 0 0 0 0 
0 0 0 0 0 0 0 0 0 
0 0 0 0 0 0 0 0 0 
0 0 0 0 0 0 0 0 0 
0 0 0 0 0 0 0 0 0 
0 0 0 0 0 0 0 0 0 
0 0 0 0 0 0 0 0 0 
0 0 0 0 0 0 0 0 0 
0 0 0 0 0 0 0 0 0 
0 0 0 0 0 0 0 0 0 
0 0 0 0 0 0 0 0 0 
0 0 0 0 0 0 0 0 0 
0 0 0 0 0 0 0 0 0 
0 0 0 0 0 0 0 0 0 
0 0 0 0 0 0 0 0 0 
0 0 0 0 0 0 0 0 0 
0 0 0 0 0 0 0 0 0 
0 0 0 0 0 0 0 0 0 
0 0 0 0 0 0 0 0 0 
0 0 0 0 0 0 0 0 0 
0 0 0 0 0 0 0 0 0 
0 0 0 0 0 0 0 0 0 
0 0 0 0 0 0 0 0 0 
0 0 0 0 0 0 0 0 0 
0 0 0 0 0 0 0 0 0 
0 0 0 0 0 0 0 0 0 
0 0 0 0 0 0 0 0 0 
0 0 0 0 0 0 0 0 0 
0 0 0 0 0 0 0 0 0 
0 0 0 0 0 0 0 0 0 
0 0 0 0 0 0 0 0 0 
0 0 0 0 0 0 0 0 0 
0 0 0 0 0 0 0 0 0 
0 0 0 0 0 0 0 0 0 
0 0 0 0 0 0 0 0 0 
0 0 0 0 0 0 0 0 0 
0 0 0 0 0 0 0 0 0 
0 0 0 0 0 0 0 0 0 
0 0 0 0 0 0 0 0 0 
0 0 0 0 0 0 0 0 0 
0 0 0 0 0 0 0 0 0 
0 0 0 0 0 0 0 0 0 
0 0 0 0 0 0 0 0 0 
0 0 0 0 0 0 0 0 0 
0 0 0 0 0 0 0 0 0 
0 0 0 0 0 0 0 0 0 
0 0 0 0 0 0 0 0 0 
0 0 0 0 0 0 0 0 0 
0 0 0 0 0 0 0 0 0 
0 0 0 0 0 0 0 0 0 
0 0 0 0 0 0 0 0 0 
0 0 0 0 0 0 0 0 0 
0 0 0 0 0 0 0 0 0 
0 0 0 0 0 0 0 0 0 
0 0 0 0 0 0 0 0 0 
0 0 0 0 0 0 0 0 0 
0 0 0 0 0 0 0 0 0 
0 0 0 0 0 0 0 0 0 
0 0 0 0 0 0 0 0 0 
0 0 0 0 0 0 0 0 0 
0 0 0 0 0 0 0 0 0 
0 0 0 0 0 0 0 0 0 
0 0 0 0 0 0 0 0 0 
0 0 0 0 0 0 0 0 0 
0 0 0 0 0 0 0 0 0 
0 0 0 0 0 0 0 0 0 
0 0 0 0 0 0 0 0 0 
0 0 0 0 0 0 0 0 0 
0 0 0 0 0 0 0 0 0 
0 0 0 0 0 0 0 0 0 
0 0 0 0 0 0 0 0 0 
0 0 0 
v 3 835 double
-1.09661 0.192572 -0.797572 -0.90713 0.0164411 -0.388933 -0.94572 0.105758 -0.414143 
-1.02054 -0.000885128 -1.80298 -1.0012 -0.00625908 -1.81639 -1.14008 0.0783112 -1.7385 
-1.03023 -0.0325939 -1.79165 -1.09948 0.050905 -1.76371 -1.00241 -0.0354454 -1.78432 
-1.11682 0.0692231 -1.82113 -1.04336 -0.0159088 -1.75795 -1.07785 0.00966422 -1.76226 
-1.02319 -0.00675124 -1.76731 -1.17184 0.130419 -1.87854 -1.05493 -0.0341769 -1.74216 
-1.08108 0.0146906 -1.73515 -0.970163 -0.0787416 -1.7119 -0.99094 -0.0206051 -1.80917 
-1.17388 0.319776 -1.77456 -0.927618 -0.0602206 -1.69493 -1.09945 0.0804293 -1.67547 
-1.15066 0.15227 -1.66717 -1.26359 0.0641379 -1.70966 -1.09474 0.0645417 -1.64089 
-0.932349 -0.0459313 -1.68435 -1.07604 0.0646384 -1.67488 -1.00281 0.0437341 -1.65639 
-1.04671 0.136552 -1.66426 -1.04894 0.0807352 -1.62841 -1.07773 -0.0167849 -1.60691 
-0.978574 0.0524771 -1.60526 -1.05677 -0.0150435 -1.58003 -1.07203 -0.0363971 -1.60932 
-1.13767 0.00659103 -1.56671 -1.08304 -0.0300217 -1.57754 -1.12546 0.0102713 -1.53967 
-1.03708 -0.0783032 -1.5341 -0.931863 0.0771087 -1.51551 -1.10363 -0.0237847 -1.54872 
-1.28902 -0.0814642 -1.56495 -1.13144 -0.031255 -1.57267 -0.896679 0.0432258 -1.45834 
-1.10963 -0.0591407 -1.49325 -1.08936 -0.0532732 -1.54238 -1.05888 -0.0450864 -1.54409 
-1.10887 -0.0363477 -1.50123 -1.1835 0.199189 -1.51318 -0.984536 -0.106928 -1.46691 
-0.976038 -0.00339729 -1.45341 -0.968014 -0.0189975 -1.43738 -1.10426 -0.102396 -1.44315 
-1.31063 -0.0663258 -1.51427 -0.917413 0.00930895 -1.46884 -0.938959 0.00363326 -1.44446 
-0.973977 -0.0620074 -1.40501 -1.007 -0.035907 -1.46735 -0.964239 0.0279976 -1.41054 
-1.02291 -0.0295014 -1.41057 -0.989407 -0.0182311 -1.40032 -0.924748 -0.032325 -1.36508 
-0.970471 0.0035446 -1.3631 -0.98199 -0.0516308 -1.39323 -1.19872 0.129853 -1.4657 
-1.18905 -0.0810139 -1.39644 -1.03729 0.0749268 -1.37479 -1.31519 -0.353185 -1.59905 
-0.956478 0.00383404 -1.33929 -1.20047 -0.123022 -1.40428 -1.06749 -0.0186179 -1.35933 
-1.06557 0.132866 -1.36395 -1.3896 0.106067 -1.46906 -1.08427 0.0145501 -1.26242 
-0.848479 -0.00715717 -1.27593 -1.07238 0.686387 -1.54643 -0.858799 -0.0328401 -1.22661 
-1.04286 0.0226398 -1.19928 -1.10236 -0.0375367 -1.23361 -1.02826 -0.149685 -1.15465 
-1.16521 -0.0614088 -1.21306 -1.11331 -0.0954678 -1.18784 -0.949705 0.0649625 -1.15536 
-1.14296 -0.362958 -1.02534 -1.09996 0.0665071 -1.22229 -1.13792 -0.0900836 -1.12177 
-1.2027 -0.255341 -1.1259 -1.05961 0.0125691 -1.07645 -0.997688 0.0583755 -1.06841 
-0.962506 0.0404147 -1.12984 -1.11199 0.086525 -1.04389 -0.936981 0.122637 -1.11051 
-1.07204 0.128448 -0.963729 -1.13712 0.0324697 -1.04777 -0.925117 -0.0359711 -0.986954 
-0.949585 0.0400099 -0.990964 -1.11591 -0.183349 -1.05362 -1.07563 -0.0113252 -0.952797 
-1.04158 -0.0208647 -0.983865 -1.33894 0.156295 -1.19487 -1.13651 -0.00933753 -1.00095 
-1.09179 -0.013483 -0.871968 -0.916449 0.0788902 -0.881384 -1.06024 0.0977292 -0.878334 
-1.01159 0.020376 -0.801166 -1.10737 -0.0998359 -0.878466 -0.881636 0.0808546 -0.934048 
-1.01886 -0.0585147 -0.913633 -0.929603 -0.0440289 -0.863415 -0.956295 -0.0831273 -0.868771 
-0.984412 -0.108053 -0.990347 -1.11765 0.0252541 -0.852911 -1.08696 0.02906 -0.870312 
-1.11089 -0.130922 -0.870194 -0.924102 -0.0507259 -0.821194 -1.23432 -0.0694596 -0.832287 
-1.07126 0.0467332 -0.938028 -1.06704 0.0631375 -0.771849 -1.09844 0.0183118 -0.770325 
-1.07617 0.0584844 -1.1038 -0.976943 0.290424 -0.879596 -1.00808 0.0148176 -0.779384 
-1.01457 -0.0107964 -0.83326 -1.06628 0.0719716 -0.739583 -1.05797 0.0625611 -0.740923 
-1.11162 0.0444094 -0.766134 -1.09406 0.0147668 -0.770339 -0.934027 -0.0827047 -0.832591 
-0.973923 -0.000797317 -0.756869 -1.09174 0.0550328 -0.738648 -1.02869 0.0729429 -0.707863 
-1.06084 -0.0141527 -0.670762 -1.00642 0.0552764 -0.652324 -0.985938 0.00581331 -0.657459 
-1.00893 -0.0112386 -0.704718 -1.00334 -0.00373898 -0.676675 -1.02893 -0.125442 -0.747904 
-0.900658 0.0044599 -0.688894 -0.981977 -0.0137255 -0.6363 -0.925244 -0.0175386 -0.568526 
-0.911364 0.04937 -0.623481 -0.978081 -0.0317412 -0.615148 -0.992516 -0.0335261 -0.602099 
-1.02747 0.0269307 -0.668404 -0.976188 0.0188753 -0.68969 -1.06831 -0.0185623 -0.682648 
-1.15883 0.10086 -0.714638 -1.16128 0.128801 -0.690574 -0.954358 -0.138168 -0.517158 
-0.90534 0.0417808 -0.494575 -0.986659 0.0320406 -0.638864 -0.957507 0.0581484 -0.62982 
-1.29494 -0.0705968 -0.774507 -1.24324 -0.0486225 -0.844117 -1.23744 0.213828 -0.667583 
-0.97408 -0.00866052 -0.562173 -1.1338 0.03682 -0.505771 -0.968916 -0.0198304 -0.401632 
-0.921947 0.0457111 -0.444527 -1.04384 -0.0894427 -0.482301 -0.969808 -0.0651305 -0.605475 
-1.12209 -0.00457418 -0.471719 -1.04587 0.0279668 -0.458093 -1.08179 0.0011668 -0.431457 
-1.14256 0.126391 -0.554947 -1.11843 0.0396549 -0.481771 -1.04001 0.017738 -0.460109 
-0.678589 0.0158591 -0.285024 -0.978839 0.0393741 -0.536687 -0.990588 -0.208452 -0.491029 
-1.00993 0.0911743 -0.47843 -1.00366 0.0399991 -0.454472 -1.03105 0.0520839 -0.415346 
-1.08252 -0.0241839 -0.467671 -0.953104 0.123482 -0.411439 -1.08863 0.0653876 -0.441252 
-1.02713 -0.0817857 -0.437458 -0.987451 0.0305797 -0.401469 -0.883944 0.144291 -0.375208 
-0.950107 0.144321 -0.355651 -1.08495 0.109475 -0.468392 -0.906449 -0.0480816 -0.385585 
-1.07336 -0.08331 -0.458319 -1.00385 -0.0460451 -0.427743 -0.986152 0.000672794 -0.411276 
-1.11898 -0.0494882 -0.472286 -1.30945 -0.0420431 -0.546969 -1.08589 -0.0337296 -0.442919 
-0.826151 0.0833356 -0.363051 -0.810702 0.181963 -0.358584 -0.867079 0.00402265 -0.364917 
-0.883715 0.172893 -0.367898 -0.887558 0.00802255 -0.38994 -0.72153 0.145291 -0.328578 
-0.948104 0.0875859 -0.412295 -1.04907 0.0246412 -0.444065 -0.746183 -0.00713323 -0.313203 
-0.80832 -0.0531289 -0.339056 -0.825471 -0.0534376 -0.373522 -0.807568 0.0780285 -0.327147 
-0.837261 -0.0127647 -0.35468 -0.829073 -0.0107821 -0.358202 -0.802005 -0.00840921 -0.338482 
-0.860055 0.0440995 -0.35091 -1.15909 -0.0176375 -0.485936 -0.946748 0.152079 -0.229826 
-0.94311 0.0210563 -0.424066 -1.26476 0.0649833 -0.476109 -1.13002 0.0421571 -0.462106 
-1.00209 -0.0294848 -0.418123 -0.994336 0.0677308 -0.425313 -0.959537 0.0110473 -0.415324 
-1.04136 0.0169596 -0.517502 -0.940428 0.0548142 -0.40149 -0.778779 -0.0406575 -0.327008 
-0.920983 0.0261696 -0.387631 -0.798558 -0.019509 -0.332465 -0.789649 -0.0121463 -0.287148 
-0.880272 -0.132263 -0.349625 -0.899431 -0.0488972 -0.400627 -0.807904 -0.0733958 -0.328769 
-0.770804 -0.037424 -0.308611 -0.744386 0.0029748 -0.294298 -0.830897 -0.00970613 -0.314256 
-0.757878 0.0419901 -0.306965 -0.842697 -0.0216896 -0.348693 -0.833942 -0.0061395 -0.344691 
-0.856358 0.0656683 -0.358052 -0.878515 0.144379 -0.364235 -1.10313 -0.0949368 -0.497306 
-0.922133 -0.00156649 -0.382209 -0.935814 0.0307915 -0.398996 -0.898434 0.0446217 -0.384737 
-1.30762 -0.100605 -0.844171 -0.840809 0.00757481 -0.357925 -1.35203 -0.0695925 -0.378247 
-0.893235 0.0353142 -0.377448 -0.910324 0.016955 -0.386653 -0.987779 0.0376919 -0.413269 
-0.943107 0.127011 -0.400842 -0.975127 0.0604539 -0.455012 -0.929379 0.0860901 -0.346962 
-0.927815 0.104568 -0.389219 -0.88591 0.103871 -0.364303 -1.031 0.0600687 -0.411419 
-1.08546 0.0153773 -0.426146 -1.03268 -0.0655321 -0.467835 -1.20461 -0.0146565 -0.525473 
-1.05593 0.238236 -0.523784 -0.818302 0.108032 -0.351768 -0.830551 0.0706316 -0.309313 
-0.947259 0.00392392 -0.403521 -0.947948 0.0713905 -0.389255 -0.965471 -0.0615727 -0.417622 
-0.965307 0.121029 -0.350947 -0.89605 0.131809 -0.326249 -1.04284 -0.127279 -0.45295 
-1.04084 -0.0201869 -0.408315 -1.10518 0.431571 -0.640517 -0.937769 -0.034083 -0.318811 
-0.776957 0.0339738 -0.336559 -0.748853 0.160103 -0.358133 -0.966129 -0.0225618 -0.394947 
-0.970945 0.0871706 -0.293443 -0.874103 0.10552 -0.374872 -0.959556 0.0854771 -0.406429 
-0.898787 0.0335202 -0.382207 -0.904659 0.00842761 -0.384615 -0.882968 0.0378757 -0.374156 
-0.901295 0.0523158 -0.374955 -0.914884 0.00594141 -0.382145 -0.899871 -0.0640405 -0.390359 
-1.05138 -0.0656804 -0.452629 -0.866896 0.0951773 -0.146376 -0.784833 -0.00334679 -0.203823 
-1.02266 -0.227078 -0.383309 -0.980959 0.0183798 -0.41703 -1.0843 0.0840401 -0.488524 
-1.0026 -0.0879373 -0.429766 -0.902823 0.0688568 -0.381293 -0.89154 0.0496889 -0.371109 
-0.869875 -0.0645705 -0.377494 -0.827529 0.106964 -0.342218 -0.86866 -0.0418801 -0.367196 
-0.825993 -0.0240438 -0.355594 -1.03313 -0.0313251 -0.433788 -1.03839 -0.022853 -0.438447 
-1.13318 -0.081245 -0.49392 -0.895222 0.0596638 -0.368316 -0.988279 -0.0420851 -0.446385 
-0.906726 0.0155536 -0.358252 -0.839797 -0.0387488 -0.34898 -0.860512 -0.0600073 -0.360523 
-0.99515 -0.0752572 -0.426285 -0.858665 -0.0381055 -0.365548 -0.960732 -0.0304122 -0.402717 
-0.982392 -0.0246998 -0.4103 -0.928393 -0.0564283 -0.436664 -0.87082 0.0563064 -0.35231 
-0.844908 -0.0733994 -0.37314 -0.945548 0.062432 -0.385784 -0.998638 0.0830046 -0.523605 
-1.48717 -0.00404977 -0.623636 -0.870256 -0.053831 -0.35706 -0.672128 0.102664 -0.270771 
-0.915384 -0.0625211 -0.448008 -1.10109 -0.00610412 -0.632705 -0.869806 0.0659106 -0.348995 
-0.873181 0.0180095 -0.359083 -0.955342 -0.0460305 -0.394555 -0.926505 0.0253942 -0.400803 