# vtk DataFile Version 4.0
Generated by LIGGGHTS
ASCII
DATASET POLYDATA
POINTS 442 float
-0.275683 0.0159748 -0.221071 -0.25344 -0.000220341 -0.212957 -0.233064 -0.00125007 -0.203252 
-0.227347 -0.0242664 -0.199482 -0.225197 -0.0130046 -0.200061 -0.231275 -0.039235 -0.197146 
-0.226734 0.0369593 -0.196258 -0.220128 -0.0287559 -0.194133 -0.210435 -0.0130728 -0.192898 
-0.215213 0.037068 -0.190309 -0.313285 0.0788432 -0.188492 -0.215456 0.0644749 -0.179266 
-0.205184 -0.0112255 -0.191971 -0.0619891 0.004733 -0.127962 -0.196142 -0.0150001 -0.187506 
-0.197571 -0.0113104 -0.188813 -0.194071 -0.00999993 -0.187347 -0.195256 0.00405179 -0.188286 
-0.194989 -0.00681103 -0.186201 -0.189523 -0.00563474 -0.185809 -0.192641 -0.002196 -0.186267 
-0.18717 0.0142314 -0.183345 -0.194367 0.0173115 -0.185841 -0.180138 -0.00415169 -0.18182 
-0.186561 0.00560329 -0.183559 -0.199332 0.0102175 -0.181196 -0.185388 0.00978797 -0.183768 
-0.186721 0.000361683 -0.179288 -0.177089 0.00116027 -0.179554 -0.171646 0.0126929 -0.176632 
-0.192522 0.0153582 -0.181672 -0.178824 0.0151748 -0.179459 -0.172376 0.0179042 -0.177593 
-0.182542 0.000413247 -0.178277 -0.162243 0.00549216 -0.174386 -0.163474 0.0122987 -0.173243 
-0.167359 0.0210044 -0.175081 -0.173341 0.0260086 -0.175531 -0.190316 -0.0577967 -0.17318 
-0.179917 -0.0556133 -0.17014 -0.171853 -0.0403566 -0.172614 -0.169848 -0.00753571 -0.174817 
-0.156239 -0.00274296 -0.170787 -0.155598 0.00134828 -0.171458 -0.157835 0.00422662 -0.171191 
-0.153729 0.0041632 -0.170751 -0.158589 0.0169854 -0.17084 -0.15066 -0.0264096 -0.16722 
-0.147554 -0.0085924 -0.166927 -0.149279 -0.00475184 -0.168924 -0.147404 0.000204849 -0.168164 
-0.149819 0.00264476 -0.169104 -0.150228 0.00814128 -0.167599 -0.14781 0.0116442 -0.167891 
-0.150665 0.0149432 -0.168688 -0.152994 0.0366092 -0.165962 -0.167079 0.0505801 -0.16732 
-0.167406 -0.05866 -0.161217 -0.153192 -0.042353 -0.163295 -0.141397 -0.0175913 -0.163561 
-0.144713 -0.0102371 -0.162617 -0.139363 -0.00393705 -0.16476 -0.132915 -0.00739881 -0.161932 
-0.136312 -0.00228098 -0.162419 -0.140682 0.00283262 -0.16525 -0.146146 0.0290344 -0.164781 
-0.140277 -0.0334024 -0.160363 -0.140994 -0.00683414 -0.160438 -0.126085 -0.00484074 -0.159172 
-0.143206 -0.000725608 -0.161691 -0.132456 -0.000636784 -0.161887 -0.131723 -0.00335393 -0.160827 
-0.129113 0.000883785 -0.15943 -0.12494 0.00219489 -0.158744 -0.129013 0.00643009 -0.159106 
-0.124762 0.00618065 -0.158331 -0.152069 0.0525903 -0.160474 -0.145164 -0.0547091 -0.156829 
-0.136102 -0.0409528 -0.15667 -0.134224 -0.0376058 -0.158001 -0.122776 -0.0137553 -0.157185 
-0.123106 -0.00728214 -0.157822 -0.121009 -0.0104995 -0.15554 -0.118813 -0.00591487 -0.156076 
-0.132744 -0.000680152 -0.158696 -0.128983 -0.0033715 -0.159256 -0.12959 -0.00125995 -0.15601 
-0.124426 -0.00175132 -0.157299 -0.153545 0.000624166 -0.155878 -0.136997 0.000470547 -0.157109 
-0.126946 0.00707868 -0.155095 -0.144847 0.0137545 -0.157983 -0.136564 0.0376713 -0.158524 
-0.139563 0.0415087 -0.157964 -0.13022 -0.0387811 -0.154942 -0.11725 -0.0209535 -0.154058 
-0.11235 -0.0196527 -0.151999 -0.112243 -0.0165963 -0.15256 -0.110444 -0.0138506 -0.151773 
-0.124012 -0.00560994 -0.155524 -0.127486 0.0001399 -0.153751 -0.118364 0.0114188 -0.154387 
-0.114657 0.0130387 -0.153804 -0.1127 0.0207113 -0.152192 -0.111195 -0.00825168 -0.151593 
-0.101258 -0.00780097 -0.148525 -0.106916 -0.00682309 -0.150987 -0.142176 0.00304334 -0.151711 
-0.113463 0.00288631 -0.149646 -0.104472 0.00703382 -0.14919 -0.0992534 0.00392501 -0.147869 
-0.120666 0.0119516 -0.149187 -0.109397 0.013802 -0.15154 -0.105891 0.0133714 -0.150034 
-0.106728 0.0164222 -0.150209 -0.105965 0.02112 -0.148225 -0.115649 -0.052987 -0.145653 
-0.0974099 -0.00568562 -0.145941 -0.12389 0.00072351 -0.14696 -0.103725 -0.00338033 -0.145918 
-0.161822 0.000441194 -0.145039 -0.0928757 0.00311489 -0.145134 -0.0980666 0.00491174 -0.143641 
-0.105708 0.0071716 -0.145153 -0.10023 0.00837134 -0.146988 -0.0972067 0.010022 -0.144681 
-0.0971258 0.0231907 -0.1453 -0.118058 -0.0619842 -0.142789 -0.0991995 -0.0424276 -0.14217 
-0.096349 -0.0322285 -0.143441 -0.0983252 -0.0205566 -0.145086 -0.0928976 -0.018948 -0.144092 
-0.0879958 -0.0067092 -0.142838 -0.0917241 -0.00532627 -0.143563 -0.0905771 0.000154269 -0.14311 
-0.109391 0.00323319 -0.146611 -0.10151 0.00185421 -0.145353 -0.0888136 0.00571919 -0.141708 
-0.0998164 0.0132101 -0.143103 -0.0957433 0.0269669 -0.143038 -0.0902656 0.0351715 -0.140308 
-0.103865 0.0545555 -0.14028 -0.0964584 -0.0528294 -0.137911 -0.104564 -0.0170186 -0.141239 
-0.0824617 -0.0152254 -0.138952 -0.0771671 -0.00368423 -0.138563 -0.0822966 0.000980095 -0.13962 
-0.0845868 0.0101767 -0.140276 -0.0790115 0.00859896 -0.138102 -0.0968084 0.0130268 -0.137694 
-0.129185 0.0162147 -0.137147 -0.0851597 0.0200519 -0.140789 -0.0824841 0.026117 -0.138699 
-0.0828252 -0.0295657 -0.137188 -0.0757966 -0.0131343 -0.136353 -0.0820971 -0.00854059 -0.138429 
-0.0697484 -0.00345436 -0.13434 -0.0738034 -0.00218328 -0.13547 -0.0877512 0.000827303 -0.136419 
-0.0726256 0.00559257 -0.136541 -0.0891697 0.0104212 -0.135851 -0.0831721 0.0107871 -0.136259 
-0.0734309 0.0101579 -0.135626 -0.083785 0.0336068 -0.135488 -0.104553 -0.0456272 -0.134302 
-0.0622408 -0.0145756 -0.130625 -0.0862532 -0.00378756 -0.132964 -0.0660983 -0.00213189 -0.131156 
-0.0984107 0.00099473 -0.133245 -0.0578956 0.00590856 -0.130301 -0.0650438 0.0105848 -0.132081 
-0.0681534 0.0175623 -0.132719 -0.0650487 0.0147292 -0.132773 -0.0679361 -0.0345923 -0.130734 
-0.0647144 -0.0288877 -0.129199 -0.0576467 -0.0259883 -0.128444 -0.0563286 -0.020501 -0.12723 
-0.0545299 -0.0161442 -0.128281 -0.0965588 -0.0117315 -0.130899 -0.057451 -0.0107197 -0.129899 
-0.0510349 -0.00777631 -0.126607 -0.0551407 -0.00534818 -0.128093 -0.0871904 -0.0018064 -0.129053 
-0.054317 -0.000162733 -0.127864 -0.0493913 -0.000464881 -0.126605 -0.0504532 0.00254167 -0.127222 
-0.0898059 0.00416183 -0.13177 -0.082561 0.00203582 -0.130122 -0.0529632 0.00522234 -0.128216 
-0.0603553 0.00861871 -0.130173 -0.055546 0.00892296 -0.12812 -0.0917224 0.00861716 -0.129572 
-0.0657309 0.0266428 -0.127662 -0.0579934 0.0269211 -0.127865 -0.0618227 -0.0456873 -0.125825 
-0.0567542 0.00375617 -0.127095 -0.0511604 0.00543809 -0.125656 -0.0886385 0.00332299 -0.126034 
-0.0467898 -0.0134313 -0.125297 -0.0759673 -0.00468805 -0.125876 -0.0620648 0.0109606 -0.125387 
-0.00105657 0.0183981 0.0554188 -0.0510717 -0.0212648 -0.124222 -0.0468845 -0.0178522 -0.123771 
-0.00247583 0.0215485 0.0505514 -0.0497073 -0.00782232 -0.123219 -0.011677 -0.0284877 0.0498665 
-0.0661993 -0.00464078 -0.124771 -0.0538009 -0.00534152 -0.12432 -0.0453662 -0.0073164 -0.124442 
-0.000325902 -0.0296171 0.0527411 -0.0461719 0.000367688 -0.123555 -0.00180751 0.0338204 0.0534478 
-0.00282712 0.00545747 0.0534341 -0.00025791 -0.0162541 0.0525827 -0.0483415 0.00418037 -0.123867 
-0.0791962 0.00806088 -0.124564 -0.0582715 0.0108752 -0.123764 -0.0443588 0.00982895 -0.124385 
-0.0298384 -0.0303038 0.0498338 -0.0526858 0.0315502 -0.124296 -0.0640818 0.0503458 -0.124251 
-0.0386309 -0.0271417 -0.119216 -0.0526261 -0.0137722 -0.123607 -0.0378253 -0.0161547 -0.121001 
-0.0664903 -0.0117909 -0.121433 -0.0415267 -0.0119724 -0.122022 -0.0804559 -0.00972754 -0.124833 
-0.042737 -0.00811662 -0.121121 -0.0440924 -0.00439338 -0.122209 -0.0338788 -0.00418616 -0.118129 
-0.0373199 0.00513379 -0.120723 -0.0403472 0.00700142 -0.122653 -0.0536501 0.0120961 -0.119984 
-0.0504969 0.0135985 -0.122945 -0.0393101 0.0256181 -0.119711 -0.0474998 -0.0167264 -0.114414 
-0.055324 -0.0100399 -0.120239 -0.0367304 -0.00429713 -0.116269 -0.0299793 -0.00712517 -0.118463 
-0.0310301 -0.00133563 -0.117685 -0.0597497 0.00454286 -0.118827 -0.0421995 0.00369663 -0.118335 
-0.0339993 0.00315858 -0.11911 -0.0437382 0.00873471 -0.116521 -0.0372104 0.00914559 -0.118946 
-0.0435887 0.0210753 -0.118012 -0.0352013 0.0174165 -0.118942 -0.0252673 0.0218077 -0.115412 
-0.0605007 0.0706405 -0.115705 -0.0402861 -0.0375894 -0.112839 -0.0266526 -0.0238888 -0.113713 
-0.0531449 -0.0165236 -0.117193 -0.0490379 -0.0129158 -0.111484 -0.0341309 -0.0156598 -0.111435 
-0.0522606 -0.0131528 -0.114235 -0.0160256 -0.0115509 -0.111811 -0.0359407 -0.0079821 -0.114011 
-0.0317912 -0.00775737 -0.115651 -0.0212748 -0.00437603 -0.11237 -0.0376924 -0.000829084 -0.120512 
-0.0619432 0.00034756 -0.115661 -0.0279877 0.0003061 -0.115056 -0.0594866 0.00389148 -0.115579 
-0.0313631 0.00970538 -0.112825 -0.0648895 0.011164 -0.112144 -0.0223552 0.0103994 -0.111004 
-0.0682711 0.0134217 -0.116838 -0.0596307 0.015045 -0.11291 -0.0269164 0.0180171 -0.115428 
-0.018292 0.0134787 -0.113138 -0.0239578 0.0262369 -0.112435 -0.0276641 0.0295581 -0.113977 
-0.033618 0.0320249 -0.111108 -0.0375228 -0.0614141 -0.110853 -0.0263058 -0.018622 -0.110459 
-0.0299736 -0.0126347 -0.109125 -0.0263644 -0.0151475 -0.10801 -0.0333063 -0.0121378 -0.111193 
-0.0461118 -0.00460624 -0.110619 -0.0301562 -0.00521521 -0.108481 -0.0640707 0.00587575 -0.109551 
-0.0232563 0.00863488 -0.107761 -0.0502084 0.0127727 -0.109229 -0.0647749 0.0167469 -0.110437 
-0.0320019 0.0161666 -0.113664 -0.0235265 0.0192232 -0.108676 -0.0341122 0.0227298 -0.113981 
-0.0159577 0.0232135 -0.106532 -0.0224348 0.0287055 -0.111132 -0.0180824 0.0310561 -0.111087 
-0.0115031 -0.033528 -0.107835 -0.0341543 -0.0265255 -0.117142 -0.0205966 -0.0116611 -0.102768 
-0.0372094 -0.00406139 -0.104733 -0.0188376 -0.00579681 -0.104157 -0.0111617 0.00434912 -0.10656 
-0.0457697 0.00487235 -0.107207 -0.0432933 0.0114054 -0.106686 -0.0277165 0.0217551 -0.109884 
-0.0182106 0.0191716 -0.111488 -0.0177764 0.0293857 -0.105292 -0.0127962 0.030735 -0.103579 
-0.0208647 -0.0320515 -0.111051 -0.0210535 0.00161746 -0.113793 0.00994178 0.0177599 -0.100971 
-0.00690494 0.0300788 -0.103075 -0.0118113 -0.0237504 -0.107953 -0.0120408 -0.0289279 -0.106319 
-0.0303622 -0.0214325 -0.105592 -0.0188893 -0.0164448 -0.107024 -0.00461651 -0.0128665 -0.107411 
-0.0032398 0.00663868 -0.107154 -0.0141191 -0.0138017 -0.102682 -0.0252225 -0.00395457 -0.102218 
-0.027048 -0.0348853 -0.100544 -0.00418171 -0.00447311 -0.0954345 -0.0250889 0.00553727 -0.0967278 
-0.0184752 -0.0330418 -0.0939377 -0.00344499 -0.0220199 -0.0919935 -0.00876558 -0.00149609 -0.0913699 
-0.0256427 -0.020268 -0.0876803 -0.0241229 -0.00156433 -0.0870391 -0.0346461 0.030431 -0.0880843 
-0.00515441 0.000607433 -0.0834289 -0.0204765 0.00703928 -0.0867123 -0.0293092 0.0266251 -0.086565 
-0.0259008 0.01415 -0.0814417 -0.0318304 -0.0270523 -0.0791223 -0.0118162 -0.0172965 -0.0765319 
-0.0107355 -0.0111371 -0.0763454 -0.0288367 0.021507 -0.078649 -0.0208274 -0.00751444 -0.0727301 
-0.0344795 0.0306845 -0.0736517 -0.00974267 0.00154746 -0.0694245 -0.0224693 0.00786627 -0.0701938 
-0.026015 0.0234799 -0.070097 -0.0310028 0.00427373 -0.0678197 -0.0292124 -0.00857811 -0.0622733 
-0.0282123 0.0119421 -0.0637324 -0.00304149 0.01634 -0.0634372 -0.0145727 0.0196597 -0.0632776 
-0.00482279 0.0319284 -0.0650837 -0.0258414 -0.0246135 -0.0588428 -0.0120659 -0.000928847 -0.0608491 
-0.00423369 0.00513081 -0.0609705 -0.000558622 -0.0225112 -0.0575151 -0.0230867 -0.0218823 -0.0534373 
-0.0250933 5.52728e-05 -0.050646 -0.00209585 -0.0253397 -0.0496661 -0.0131172 0.0174599 -0.0483281 
-0.0054599 -0.0346412 -0.0447661 -0.00205387 -0.0284209 -0.0433723 -0.0318304 -0.0245036 -0.0450012 
-0.00797106 -0.0174946 -0.0410029 -0.00426265 -0.00806252 -0.0401888 -0.0153561 0.00561382 -0.0399209 
-0.00209743 -0.0197497 -0.0374218 -0.029449 0.0175582 -0.0395784 -0.0135917 0.0274385 -0.0373593 
-0.032644 -0.0063197 -0.0354679 -0.00532413 0.00347482 -0.0338039 -0.0196875 0.000933277 -0.0300969 
-0.00977287 0.0109784 -0.0290645 -0.00315638 0.017114 -0.0319431 -0.0243451 0.0195956 -0.0291931 
-0.0215522 -0.0188967 -0.0281152 -0.0168696 0.0180085 -0.0270338 -0.0135751 0.0240704 -0.0275568 
-0.0164984 0.0336061 -0.0277886 -0.00832892 -0.0172649 -0.02404 -0.0184795 -0.0269407 -0.017963 
-0.00858455 -0.00884288 -0.0199823 -0.00390427 -0.00527178 -0.0187716 -0.0310592 -0.00121585 -0.0184497 
-0.0162721 0.0114791 -0.0205037 -0.00639582 0.00662071 -0.0142792 -0.00937081 0.0258081 -0.0167544 
-0.00657095 -0.0222035 -0.0121029 -0.00665099 -0.0147089 -0.0132709 -0.0206177 -0.0113305 -0.0131795 
-0.0123384 -0.0119647 -0.0131548 -0.0104872 0.0175218 -0.0125342 -0.029518 -0.0259191 -0.00903187 
-0.0213451 -0.000776551 -0.0097346 -0.0079193 0.0298979 -0.0101955 -0.0235714 -0.0119867 -0.00615767 
-0.0220216 -0.0115727 -0.000470997 -0.0299907 0.00855733 0.000714765 -0.0173855 -0.0338902 0.00300939 
-0.00676706 -0.00981008 0.00310145 -0.0321609 -0.00607507 0.000884948 -0.00131466 0.00705789 0.00310095 
-0.0311671 0.0123986 0.00415695 -0.0077538 0.0171361 0.00187845 -0.00221027 0.0186146 0.00198169 
-0.0107659 0.0283687 0.00430751 -0.0183398 -0.0212097 0.00716453 -0.0223604 0.0276055 0.00813773 
-0.00517262 0.0323307 0.00874459 -0.00399213 -0.0264375 0.0143272 -0.0287336 -0.0143436 0.0138263 
-0.0138788 -0.0162448 0.0130898 -0.00452227 -8.57609e-05 0.0138057 -0.0232248 0.018953 0.0140551 
-0.0208051 -0.0257611 0.0174836 -0.0318082 0.0208697 0.0158729 -0.00341211 0.0279138 0.0170108 
-0.00154371 -0.0346722 0.0203936 -0.0293509 -0.0255557 0.0223405 -0.0239192 -0.011198 0.0194763 
-0.00558275 -0.00455966 0.0194193 -0.0193685 0.0119819 0.0212152 -0.0345917 -0.0281976 0.0234549 
-0.00861311 0.0156758 0.0259698 -0.0191536 0.0271245 0.0237739 -0.0124901 0.0292455 0.0256051 
-0.0184641 0.0346143 0.0256952 -0.0216218 -0.0306886 0.0295289 -0.0188515 -0.0248569 0.0281262 
-0.0319573 -0.0211048 0.0266661 -0.0215899 -0.0111508 0.0300073 -0.0067008 0.0110709 0.0279052 
-0.0255212 -0.0322233 0.0310141 -0.00801538 0.0199359 0.0322988 -0.0291051 0.026364 0.0332835 
-0.0143365 -0.0079604 0.0359235 -0.00353272 0.0202053 0.0360462 -0.0136772 0.0221297 0.0363203 
-0.0109636 -0.0311008 0.0399944 -0.0194255 -0.0262921 0.0400436 -0.00957752 -0.023935 0.0380371 
-0.0129094 -0.0188123 0.0394504 -0.0267273 0.0202325 0.039429 -0.00135906 -0.0285348 0.0416516 
-0.0293542 -0.0154504 0.0438862 -0.0144604 0.0146238 0.042927 -0.0147423 -0.00564426 0.0463691 
-0.00986991 0.00120138 0.0453472 -0.0102718 0.00457908 0.0473224 -0.0312961 0.0169384 0.0485045 
-0.0165007 0.0290903 0.0470365 
VERTICES 442 884
1 0 
1 1 
1 2 
1 3 
1 4 
1 5 
1 6 
1 7 
1 8 
1 9 
1 10 
1 11 
1 12 
1 13 
1 14 
1 15 
1 16 
1 17 
1 18 
1 19 
1 20 
1 21 
1 22 
1 23 
1 24 
1 25 
1 26 
1 27 
1 28 
1 29 
1 30 
1 31 
1 32 
1 33 
1 34 
1 35 
1 36 
1 37 
1 38 
1 39 
1 40 
1 41 
1 42 
1 43 
1 44 
1 45 
1 46 
1 47 
1 48 
1 49 
1 50 
1 51 
1 52 
1 53 
1 54 
1 55 
1 56 
1 57 
1 58 
1 59 
1 60 
1 61 
1 62 
1 63 
1 64 
1 65 
1 66 
1 67 
1 68 
1 69 
1 70 
1 71 
1 72 
1 73 
1 74 
1 75 
1 76 
1 77 
1 78 
1 79 
1 80 
1 81 
1 82 
1 83 
1 84 
1 85 
1 86 
1 87 
1 88 
1 89 
1 90 
1 91 
1 92 
1 93 
1 94 
1 95 
1 96 
1 97 
1 98 
1 99 
1 100 
1 101 
1 102 
1 103 
1 104 
1 105 
1 106 
1 107 
1 108 
1 109 
1 110 
1 111 
1 112 
1 113 
1 114 
1 115 
1 116 
1 117 
1 118 
1 119 
1 120 
1 121 
1 122 
1 123 
1 124 
1 125 
1 126 
1 127 
1 128 
1 129 
1 130 
1 131 
1 132 
1 133 
1 134 
1 135 
1 136 
1 137 
1 138 
1 139 
1 140 
1 141 
1 142 
1 143 
1 144 
1 145 
1 146 
1 147 
1 148 
1 149 
1 150 
1 151 
1 152 
1 153 
1 154 
1 155 
1 156 
1 157 
1 158 
1 159 
1 160 
1 161 
1 162 
1 163 
1 164 
1 165 
1 166 
1 167 
1 168 
1 169 
1 170 
1 171 
1 172 
1 173 
1 174 
1 175 
1 176 
1 177 
1 178 
1 179 
1 180 
1 181 
1 182 
1 183 
1 184 
1 185 
1 186 
1 187 
1 188 
1 189 
1 190 
1 191 
1 192 
1 193 
1 194 
1 195 
1 196 
1 197 
1 198 
1 199 
1 200 
1 201 
1 202 
1 203 
1 204 
1 205 
1 206 
1 207 
1 208 
1 209 
1 210 
1 211 
1 212 
1 213 
1 214 
1 215 
1 216 
1 217 
1 218 
1 219 
1 220 
1 221 
1 222 
1 223 
1 224 
1 225 
1 226 
1 227 
1 228 
1 229 
1 230 
1 231 
1 232 
1 233 
1 234 
1 235 
1 236 
1 237 
1 238 
1 239 
1 240 
1 241 
1 242 
1 243 
1 244 
1 245 
1 246 
1 247 
1 248 
1 249 
1 250 
1 251 
1 252 
1 253 
1 254 
1 255 
1 256 
1 257 
1 258 
1 259 
1 260 
1 261 
1 262 
1 263 
1 264 
1 265 
1 266 
1 267 
1 268 
1 269 
1 270 
1 271 
1 272 
1 273 
1 274 
1 275 
1 276 
1 277 
1 278 
1 279 
1 280 
1 281 
1 282 
1 283 
1 284 
1 285 
1 286 
1 287 
1 288 
1 289 
1 290 
1 291 
1 292 
1 293 
1 294 
1 295 
1 296 
1 297 
1 298 
1 299 
1 300 
1 301 
1 302 
1 303 
1 304 
1 305 
1 306 
1 307 
1 308 
1 309 
1 310 
1 311 
1 312 
1 313 
1 314 
1 315 
1 316 
1 317 
1 318 
1 319 
1 320 
1 321 
1 322 
1 323 
1 324 
1 325 
1 326 
1 327 
1 328 
1 329 
1 330 
1 331 
1 332 
1 333 
1 334 
1 335 
1 336 
1 337 
1 338 
1 339 
1 340 
1 341 
1 342 
1 343 
1 344 
1 345 
1 346 
1 347 
1 348 
1 349 
1 350 
1 351 
1 352 
1 353 
1 354 
1 355 
1 356 
1 357 
1 358 
1 359 
1 360 
1 361 
1 362 
1 363 
1 364 
1 365 
1 366 
1 367 
1 368 
1 369 
1 370 
1 371 
1 372 
1 373 
1 374 
1 375 
1 376 
1 377 
1 378 
1 379 
1 380 
1 381 
1 382 
1 383 
1 384 
1 385 
1 386 
1 387 
1 388 
1 389 
1 390 
1 391 
1 392 
1 393 
1 394 
1 395 
1 396 
1 397 
1 398 
1 399 
1 400 
1 401 
1 402 
1 403 
1 404 
1 405 
1 406 
1 407 
1 408 
1 409 
1 410 
1 411 
1 412 
1 413 
1 414 
1 415 
1 416 
1 417 
1 418 
1 419 
1 420 
1 421 
1 422 
1 423 
1 424 
1 425 
1 426 
1 427 
1 428 
1 429 
1 430 
1 431 
1 432 
1 433 
1 434 
1 435 
1 436 
1 437 
1 438 
1 439 
1 440 
1 441 

POINT_DATA 442
FIELD FieldData 7
id 1 442 int
56 9 16 30 19 34 31 2 3 
26 24 68 32 206 33 6 10 22 
60 23 7 11 1 13 5 38 21 
36 54 40 27 28 57 79 42 101 
48 41 108 99 58 88 29 45 46 
87 14 83 15 50 18 49 72 85 
43 44 8 126 92 4 52 69 12 
17 70 93 67 84 112 51 35 125 
64 156 65 73 59 20 76 62 61 
47 39 174 100 96 109 166 63 116 
55 122 75 130 104 147 74 94 111 
162 133 114 71 37 103 25 158 142 
134 150 121 148 82 118 95 154 163 
89 132 136 53 97 187 145 90 143 
98 81 110 120 167 175 144 78 128 
177 77 105 140 66 113 124 86 176 
165 123 141 80 127 139 91 138 157 
129 204 135 117 170 153 155 146 161 
164 183 137 191 196 152 182 172 102 
178 131 245 230 171 228 252 192 149 
169 193 186 115 106 160 181 185 207 
180 214 200 199 274 119 208 220 198 
212 188 257 439 218 205 435 219 434 
227 258 221 440 190 431 438 433 197 
233 271 184 432 215 216 179 189 225 
202 217 159 168 239 235 226 223 243 
260 151 270 211 285 248 229 265 247 
240 254 266 238 269 213 201 255 237 
224 262 275 268 272 253 287 277 281 
203 302 194 284 244 290 209 232 242 
273 261 210 282 107 289 278 279 251 
259 249 231 288 234 222 241 267 256 
297 299 173 195 300 276 250 286 264 
236 246 294 298 280 283 295 293 263 
291 292 313 315 314 296 301 312 308 
309 306 311 310 303 304 307 305 327 
326 321 324 322 328 317 318 319 320 
325 334 316 323 335 333 340 330 329 
332 337 331 339 336 338 345 344 352 
346 350 347 351 349 341 343 342 353 
348 366 357 358 363 354 365 356 362 
359 364 355 360 376 371 361 377 375 
368 373 379 367 369 374 372 378 370 
389 387 391 383 380 386 384 390 388 
385 381 392 382 400 394 397 402 398 
403 395 401 396 405 404 399 393 413 
412 417 410 411 418 415 409 408 407 
406 416 414 430 429 419 422 426 424 
428 425 420 423 421 442 427 437 441 
436 
type 1 442 int
1 1 1 1 1 1 1 1 1 
1 1 1 1 1 1 1 1 1 
1 1 1 1 1 1 1 1 1 
1 1 1 1 1 1 1 1 1 
1 1 1 1 1 1 1 1 1 
1 1 1 1 1 1 1 1 1 
1 1 1 1 1 1 1 1 1 
1 1 1 1 1 1 1 1 1 
1 1 1 1 1 1 1 1 1 
1 1 1 1 1 1 1 1 1 
1 1 1 1 1 1 1 1 1 
1 1 1 1 1 1 1 1 1 
1 1 1 1 1 1 1 1 1 
1 1 1 1 1 1 1 1 1 
1 1 1 1 1 1 1 1 1 
1 1 1 1 1 1 1 1 1 
1 1 1 1 1 1 1 1 1 
1 1 1 1 1 1 1 1 1 
1 1 1 1 1 1 1 1 1 
1 1 1 1 1 1 1 1 1 
1 1 1 1 1 1 1 1 1 
1 1 1 1 1 1 1 1 1 
1 1 1 1 1 1 1 1 1 
1 1 1 1 1 1 1 1 1 
1 1 1 1 1 1 1 1 1 
1 1 1 1 1 1 1 1 1 
1 1 1 1 1 1 1 1 1 
1 1 1 1 1 1 1 1 1 
1 1 1 1 1 1 1 1 1 
1 1 1 1 1 1 1 1 1 
1 1 1 1 1 1 1 1 1 
1 1 1 1 1 1 1 1 1 
1 1 1 1 1 1 1 1 1 
1 1 1 1 1 1 1 1 1 
1 1 1 1 1 1 1 1 1 
1 1 1 1 1 1 1 1 1 
1 1 1 1 1 1 1 1 1 
1 1 1 1 1 1 1 1 1 
1 1 1 1 1 1 1 1 1 
1 1 1 1 1 1 1 1 1 
1 1 1 1 1 1 1 1 1 
1 1 1 1 1 1 1 1 1 
1 1 1 1 1 1 1 1 1 
1 1 1 1 1 1 1 1 1 
1 1 1 1 1 1 1 1 1 
1 1 1 1 1 1 1 1 1 
1 1 1 1 1 1 1 1 1 
1 1 1 1 1 1 1 1 1 
1 1 1 1 1 1 1 1 1 
1 
i 3 442 int
0 0 0 0 0 0 0 0 0 
0 0 0 0 0 0 0 0 0 
0 0 0 0 0 0 0 0 0 
0 0 0 0 0 0 0 0 0 
0 0 0 0 0 0 0 0 0 
0 0 0 0 0 0 0 0 0 
0 0 0 0 0 0 0 0 0 
0 0 0 0 0 0 0 0 0 
0 0 0 0 0 0 0 0 0 
0 0 0 0 0 0 0 0 0 
0 0 0 0 0 0 0 0 0 
0 0 0 0 0 0 0 0 0 
0 0 0 0 0 0 0 0 0 
0 0 0 0 0 0 0 0 0 
0 0 0 0 0 0 0 0 0 
0 0 0 0 0 0 0 0 0 
0 0 0 0 0 0 0 0 0 
0 0 0 0 0 0 0 0 0 
0 0 0 0 0 0 0 0 0 
0 0 0 0 0 0 0 0 0 
0 0 0 0 0 0 0 0 0 
0 0 0 0 0 0 0 0 0 
0 0 0 0 0 0 0 0 0 
0 0 0 0 0 0 0 0 0 
0 0 0 0 0 0 0 0 0 
0 0 0 0 0 0 0 0 0 
0 0 0 0 0 0 0 0 0 
0 0 0 0 0 0 0 0 0 
0 0 0 0 0 0 0 0 0 
0 0 0 0 0 0 0 0 0 
0 0 0 0 0 0 0 0 0 
0 0 0 0 0 0 0 0 0 
0 0 0 0 0 0 0 0 0 
0 0 0 0 0 0 0 0 0 
0 0 0 0 0 0 0 0 0 
0 0 0 0 0 0 0 0 0 
0 0 0 0 0 0 0 0 0 
0 0 0 0 0 0 0 0 0 
0 0 0 0 0 0 0 0 0 
0 0 0 0 0 0 0 0 0 
0 0 0 0 0 0 0 0 0 
0 0 0 0 0 0 0 0 0 
0 0 0 0 0 0 0 0 0 
0 0 0 0 0 0 0 0 0 
0 0 0 0 0 0 0 0 0 
0 0 0 0 0 0 0 0 0 
0 0 0 0 0 0 0 0 0 
0 0 0 0 0 0 0 0 0 
0 0 0 0 0 0 0 0 0 
0 0 0 0 0 0 0 0 0 
0 0 0 0 0 0 0 0 0 
0 0 0 0 0 0 0 0 0 
0 0 0 0 0 0 0 0 0 
0 0 0 0 0 0 0 0 0 
0 0 0 0 0 0 0 0 0 
0 0 0 0 0 0 0 0 0 
0 0 0 0 0 0 0 0 0 
0 0 0 0 0 0 0 0 0 
0 0 0 0 0 0 0 0 0 
0 0 0 0 0 0 0 0 0 
0 0 0 0 0 0 0 0 0 
0 0 0 0 0 0 0 0 0 
0 0 0 0 0 0 0 0 0 
0 0 0 0 0 0 0 0 0 
0 0 0 0 0 0 0 0 0 
0 0 0 0 0 0 0 0 0 
0 0 0 0 0 0 0 0 0 
0 0 0 0 0 0 0 0 0 
0 0 0 0 0 0 0 0 0 
0 0 0 0 0 0 0 0 0 
0 0 0 0 0 0 0 0 0 
0 0 0 0 0 0 0 0 0 
0 0 0 0 0 0 0 0 0 
0 0 0 0 0 0 0 0 0 
0 0 0 0 0 0 0 0 0 
0 0 0 0 0 0 0 0 0 
0 0 0 0 0 0 0 0 0 
0 0 0 0 0 0 0 0 0 
0 0 0 0 0 0 0 0 0 
0 0 0 0 0 0 0 0 0 
0 0 0 0 0 0 0 0 0 
0 0 0 0 0 0 0 0 0 
0 0 0 0 0 0 0 0 0 
0 0 0 0 0 0 0 0 0 
0 0 0 0 0 0 0 0 0 
0 0 0 0 0 0 0 0 0 
0 0 0 0 0 0 0 0 0 
0 0 0 0 0 0 0 0 0 
0 0 0 0 0 0 0 0 0 
0 0 0 0 0 0 0 0 0 
0 0 0 0 0 0 0 0 0 
0 0 0 0 0 0 0 0 0 
0 0 0 0 0 0 0 0 0 
0 0 0 0 0 0 0 0 0 
0 0 0 0 0 0 0 0 0 
0 0 0 0 0 0 0 0 0 
0 0 0 0 0 0 0 0 0 
0 0 0 0 0 0 0 0 0 
0 0 0 0 0 0 0 0 0 
0 0 0 0 0 0 0 0 0 
0 0 0 0 0 0 0 0 0 
0 0 0 0 0 0 0 0 0 
0 0 0 0 0 0 0 0 0 
0 0 0 0 0 0 0 0 0 
0 0 0 0 0 0 0 0 0 
0 0 0 0 0 0 0 0 0 
0 0 0 0 0 0 0 0 0 
0 0 0 0 0 0 0 0 0 
0 0 0 0 0 0 0 0 0 
0 0 0 0 0 0 0 0 0 
0 0 0 0 0 0 0 0 0 
0 0 0 0 0 0 0 0 0 
0 0 0 0 0 0 0 0 0 
0 0 0 0 0 0 0 0 0 
0 0 0 0 0 0 0 0 0 
0 0 0 0 0 0 0 0 0 
0 0 0 0 0 0 0 0 0 
0 0 0 0 0 0 0 0 0 
0 0 0 0 0 0 0 0 0 
0 0 0 0 0 0 0 0 0 
0 0 0 0 0 0 0 0 0 
0 0 0 0 0 0 0 0 0 
0 0 0 0 0 0 0 0 0 
0 0 0 0 0 0 0 0 0 
0 0 0 0 0 0 0 0 0 
0 0 0 0 0 0 0 0 0 
0 0 0 0 0 0 0 0 0 
0 0 0 0 0 0 0 0 0 
0 0 0 0 0 0 0 0 0 
0 0 0 0 0 0 0 0 0 
0 0 0 0 0 0 0 0 0 
0 0 0 0 0 0 0 0 0 
0 0 0 0 0 0 0 0 0 
0 0 0 0 0 0 0 0 0 
0 0 0 0 0 0 0 0 0 
0 0 0 0 0 0 0 0 0 
0 0 0 0 0 0 0 0 0 
0 0 0 0 0 0 0 0 0 
0 0 0 0 0 0 0 0 0 
0 0 0 0 0 0 0 0 0 
0 0 0 0 0 0 0 0 0 
0 0 0 0 0 0 0 0 0 
0 0 0 0 0 0 0 0 0 
0 0 0 0 0 0 0 0 0 
0 0 0 0 0 0 0 0 0 
0 0 0 0 0 0 0 0 0 
0 0 0 0 0 0 0 0 0 
0 0 0 
v 3 442 double
-1.4939 -0.157212 -0.646349 -1.30354 -0.133718 -0.559814 -1.19968 0.00176578 -0.513669 
-1.11589 0.0634523 -0.469086 -1.15238 -0.00312233 -0.422719 -1.25774 -0.185506 -0.436486 
-1.1803 0.108688 -0.423036 -0.949195 -0.144305 -0.207976 -1.1147 0.180556 -0.505716 
-1.15085 0.121886 -0.416192 -1.30067 -0.131965 -0.335713 -1.17585 -0.0194481 -0.435353 
-1.0443 0.139859 -0.446715 -0.72347 -0.286304 -0.538727 -0.925237 -0.138437 -0.415938 
-0.849467 0.0592159 -0.355207 -0.784963 -0.0745487 -0.3043 -0.982389 0.0500607 -0.408765 
-1.06129 0.0756559 -0.397328 -0.845372 -0.0109155 -0.362357 -0.935778 -0.0513384 -0.49021 
-0.883048 0.176158 -0.28133 -1.00288 0.0712747 -0.276001 -0.872041 0.0303989 -0.365681 
-1.01211 0.0789751 -0.423679 -1.18523 0.291004 -0.384789 -0.969443 0.0900722 -0.396101 
-1.20271 -0.085448 -0.720571 -0.729522 0.0575182 -0.321035 -0.834081 -0.042328 -0.351578 
-1.12351 -0.105612 -0.193005 -0.953054 0.142583 -0.39309 -0.873003 -0.0325443 -0.366975 
-1.10878 -0.161778 -0.766943 -0.808854 -0.00228471 -0.350113 -0.858183 -0.00948294 -0.350973 
-0.847545 0.136804 -0.330982 -0.919797 0.0608158 -0.367203 -1.1348 -0.068285 -0.428483 
-1.0699 -0.00191334 -0.413135 -1.08334 -0.22466 -0.391245 -0.92258 -0.0894552 -0.714601 
-0.762535 -0.0211715 -0.314016 -0.754056 -0.0086126 -0.426078 -0.712772 -0.0170001 -0.609648 
-0.677657 -0.0238704 -0.279066 -0.776952 -0.00369775 -0.336646 -0.998892 -0.340168 -0.365464 
-0.706863 -0.0580033 -0.290601 -0.6804 -0.02966 -0.294691 -0.731582 0.0342636 -0.320921 
-0.877023 -0.0318021 -0.446381 -0.972308 0.191378 -0.479454 -0.687326 0.082354 -0.271535 
-0.798047 0.079716 -0.327942 -0.824648 -0.10004 -0.372906 -0.90233 -0.0152543 -0.368916 
-1.07766 -0.276287 -0.125484 -0.978985 0.0777518 -0.431997 -0.913749 -0.0530127 -0.373285 
-0.686627 -0.10273 -0.391708 -0.483549 -0.00839045 -0.206746 -0.630644 -0.100936 -0.259662 
-0.740994 -0.0699256 -0.313428 -0.625538 0.0532187 -0.27621 -0.861144 -0.0838452 -0.386157 
-0.909342 -0.091542 -0.36363 -0.70585 -0.0644416 -0.48753 -0.72004 -0.105185 -0.347206 
-0.674439 0.0249617 -0.319239 -0.735898 -0.048876 -0.274084 -0.872934 -0.105305 -0.274645 
-0.708485 -0.0535386 -0.292429 -0.674198 -0.0420858 -0.288625 -0.5776 0.0222075 -0.248804 
-0.584094 0.0716722 -0.281208 -0.841175 0.0757481 -0.305175 -0.835128 0.14023 -0.370026 
-0.883751 -0.0827926 -0.335092 -0.80087 -0.0623943 -0.31526 -0.63127 -0.266838 -0.244469 
-0.6571 -0.0399241 -0.115437 -0.793102 -0.0856383 -0.316256 -0.864902 -0.00925681 -0.365434 
-0.746749 -0.092335 -0.428513 -0.872637 -0.164397 -0.533633 -0.9945 -0.0585343 -0.263207 
-0.796429 -0.0922187 -0.338415 -0.88379 0.00919005 -0.405624 -0.866618 -0.175032 -0.465486 
-0.641053 -0.0607941 -0.110561 -0.967222 0.0163124 -0.637544 -0.89569 0.230183 -0.500991 
-1.01495 -0.000948847 -0.439511 -0.865705 -0.0913749 -0.325208 -0.897175 0.101947 -0.388512 
-0.756217 -0.0579054 -0.330574 -0.729489 -0.0407164 -0.302006 -0.601582 -0.0572196 -0.259673 
-1.16537 0.119641 -0.272634 -1.11782 -0.0187227 -0.407476 -0.86647 0.201967 -0.365251 
-0.807827 0.0921815 -0.334954 -0.803828 -0.0320818 -0.340342 -0.758102 -0.0976204 -0.283905 
-0.713607 0.0566505 -0.30626 -0.745856 -0.00973426 -0.315751 -0.962735 -0.0182138 -0.429296 
-1.18607 -0.0532701 -0.472858 -0.693785 0.0718949 -0.324703 -0.441114 0.0680783 -0.145153 
-1.13829 0.114939 -0.290355 -0.646578 0.0533573 -0.294588 -0.584304 0.0152525 -0.241822 
-0.674065 -0.0141988 -0.288318 -0.71754 0.00637578 -0.301104 -0.842484 -0.229983 -0.273681 
-0.595371 -0.0426352 -0.249702 -0.963723 0.268565 -0.742087 -0.768199 0.00700461 -0.510378 
-0.789769 -0.0534328 -0.276151 -0.632222 0.0329707 -0.268144 -0.585143 -0.0158345 -0.151096 
-0.96655 -0.0370762 -0.411682 -0.567185 -0.117846 -0.249244 -0.618722 -0.0224241 -0.209513 
-0.66406 0.0807613 -0.262313 -0.762755 -0.239157 -0.19678 -0.575938 -0.0224844 -0.231099 
-0.72784 -0.100707 -0.280605 -0.867719 0.100158 -0.35486 -0.816671 0.00901611 -0.346089 
-0.505022 0.107 -0.0998143 -0.588329 0.0203971 -0.240306 -0.605361 0.033739 -0.25349 
-0.890587 0.29075 -0.721768 -0.872657 -0.00500501 -0.533869 -0.529995 0.0491406 -0.274269 
-0.860641 0.136376 -0.463671 -0.513434 -0.0110258 -0.214986 -0.454168 0.0727102 -0.168258 
-0.695239 0.288422 -0.187341 -0.641458 -0.0577321 -0.243188 -0.832266 -0.179886 -0.738255 
-0.480709 -0.27091 -0.23725 -0.567897 0.0352269 -0.242805 -0.386412 0.109849 -0.162467 
-0.511359 0.111697 -0.325862 -0.574648 -0.0604237 -0.245431 -0.883537 0.300809 -0.193659 
-0.785109 0.0914827 -0.0555724 -0.783442 -0.123144 -0.342789 -0.692009 -0.1002 -0.293461 
-0.488742 -0.117456 -0.675553 -0.714636 0.206474 -0.229021 -0.48143 0.00189296 -0.73829 
-0.601493 0.0531805 -0.261228 -0.610469 0.144398 -0.461578 -0.662004 0.109338 -0.539625 
-0.552037 -0.0692344 -0.23344 -0.836593 0.150206 -0.480512 -0.545624 0.117286 -0.224439 
-0.494504 -0.0544287 -0.215593 -0.697866 0.320695 -0.360446 -0.718017 -0.258545 -0.672496 
-0.583779 0.142524 -0.267661 -0.874506 -0.348042 -0.655223 -0.513631 0.0570133 -0.347462 
-0.720465 -0.294153 -0.607933 -0.477454 0.130804 -0.199058 -0.568225 -0.0479796 -0.241989 
-0.479141 0.00949396 -0.202774 -0.436734 -0.00211094 -0.182563 -0.874086 -0.0248975 -0.273182 
-0.795036 -0.0644636 -0.278433 -0.599902 0.0101157 -0.251942 -0.625357 0.0568768 -0.28812 
-0.670649 -0.028827 -0.279729 -0.89999 0.0184928 -0.579998 -0.669856 0.107366 -0.288271 
-0.277757 -0.0746898 -0.099871 -0.303866 0.0276382 -0.110733 -0.747568 0.139546 -0.611184 
-0.337436 0.0353817 -0.136762 -0.526509 -0.00154417 -0.213867 -0.442406 0.0190967 -0.191144 
-0.717043 -0.319756 -0.639734 -0.720821 -0.261927 -0.6754 -0.548238 -0.09258 -0.23977 
-0.508494 -0.154818 -0.324449 -0.587705 -0.264076 -0.26444 -0.720911 -0.321481 -0.559659 
-0.480711 0.244091 -0.311665 -1.03764 -0.0415252 -0.368714 -0.474069 -0.00751994 -0.191724 
-0.549972 -0.213115 -0.510006 -0.535335 0.0607362 -0.256752 -0.758237 0.0215414 -0.465258 
-0.43226 -0.0688821 -0.178469 -0.721806 0.26499 -0.642738 -1.0082 -0.40069 -0.533249 
0 0 -1 -0.742814 0.222019 -0.286653 -0.483643 0.0444805 -0.209045 
0 0 -1 -0.637857 0.0176818 -0.286292 0 0 -1.00132 
-0.823508 0.045392 -0.296086 -0.557853 0.237312 0.0198022 -0.611158 -0.205033 -0.376514 
0 0 -1 -0.505406 0.0498532 -0.13522 0 0 -1 
0 0 -1 0 0 -1 -0.479103 -0.0316229 -0.286083 
-0.988333 0.0898184 -0.298117 -1.09746 0.110945 -0.38204 -0.245648 0.10845 -0.0969511 
0 0 -1.00162 -0.641412 -0.00813171 -0.350487 -0.697185 0.242746 -0.130552 
-0.269897 0.00312922 -0.127895 -0.703134 0.0777423 -0.456172 -0.30575 0.0352865 -0.110428 
-0.737562 0.057558 -0.606557 -0.366708 0.122367 -0.164389 -0.588376 -0.269288 -0.690959 
-0.42069 0.10645 -0.231537 -0.839388 0.0351112 0.113723 -0.478074 -0.098192 -0.0511653 
-0.36058 0.181807 -0.0752202 -0.582412 0.0903887 -0.24627 -0.841025 -0.222248 -0.31489 
-0.781434 -0.26033 -0.365653 -0.404901 -0.0559985 -0.162839 -0.748454 0.179672 0.0517059 
-0.570975 0.350351 -0.56837 -0.545613 0.0412669 -0.321353 -0.346919 0.0171675 -0.119298 
-0.411389 -0.0748396 -0.138783 -0.915968 0.437587 -0.202094 -0.489907 -0.0969583 -0.0999669 