# vtk DataFile Version 4.0
Generated by LIGGGHTS
ASCII
DATASET POLYDATA
POINTS 418 float
-0.240552 0.0194772 -0.205877 -0.222854 0.00293013 -0.199882 -0.204958 -0.00132607 -0.191315 
-0.281451 0.0812711 -0.18256 -0.201799 -0.0341392 -0.186644 -0.201331 -0.0254127 -0.188491 
-0.0678845 0.0258052 -0.127319 -0.0538943 0.0146362 -0.128102 -0.195209 -0.0115768 -0.183049 
-0.199218 0.0337275 -0.185794 -0.184286 -0.0172468 -0.181485 -0.180849 -0.0143875 -0.181493 
-0.17794 -0.0124176 -0.180316 -0.175241 -0.00839662 -0.179709 -0.172371 0.00286436 -0.178632 
-0.188338 0.0334773 -0.180245 -0.173335 -0.0119935 -0.178655 -0.169901 -0.00535805 -0.177554 
-0.170182 -0.000963876 -0.177328 -0.170886 0.00323338 -0.174786 -0.1711 0.01638 -0.176102 
-0.19547 -0.0235271 -0.175693 -0.171164 -0.0049741 -0.174784 -0.159894 -0.00485661 -0.173396 
-0.162994 0.00356839 -0.173625 -0.162866 0.007472 -0.174513 -0.158586 -0.00139554 -0.171063 
-0.166225 0.00960927 -0.169254 -0.156592 0.0116245 -0.170504 -0.152337 0.0135655 -0.168443 
-0.152191 0.0185409 -0.169005 -0.187936 0.0640601 -0.169069 -0.143526 0.00553626 -0.166346 
-0.166089 0.0127784 -0.16543 -0.147689 0.0174092 -0.167177 -0.15197 0.0242186 -0.167018 
-0.163517 -0.0555905 -0.163609 -0.146456 -0.0345373 -0.163796 -0.133645 -0.00397405 -0.162316 
-0.138701 -0.00227206 -0.163442 -0.130404 -0.000668503 -0.161048 -0.164031 0.00234594 -0.164204 
-0.13757 0.00181399 -0.163872 -0.156112 0.00526342 -0.162201 -0.138094 0.00480335 -0.164099 
-0.132018 0.00959391 -0.161226 -0.143417 0.0122187 -0.163927 -0.132191 0.0127224 -0.161251 
-0.140588 0.0169118 -0.163253 -0.154756 -0.0549126 -0.160537 -0.127404 -0.017968 -0.15875 
-0.147706 -0.00538878 -0.160492 -0.131319 -0.00712099 -0.160101 -0.12816 -0.00345471 -0.160046 
-0.129312 0.00332523 -0.160503 -0.125046 0.00195717 -0.158224 -0.140729 0.00463463 -0.159385 
-0.133778 0.0385957 -0.157529 -0.146058 0.0504388 -0.158863 -0.120193 -0.016143 -0.154867 
-0.128234 -0.00777154 -0.156042 -0.118497 -0.0049388 -0.155935 -0.127019 -0.00132469 -0.156854 
-0.119243 -0.000567465 -0.155205 -0.115494 0.00164902 -0.154709 -0.12659 0.00460728 -0.155902 
-0.126068 0.0307134 -0.155182 -0.130435 -0.0437415 -0.153462 -0.119089 -0.0308619 -0.152103 
-0.108706 -0.00823242 -0.15081 -0.124053 -0.00528755 -0.151563 -0.115549 -0.00138855 -0.153079 
-0.112061 0.00162909 -0.152177 -0.115769 0.00584746 -0.15343 -0.111873 0.00675538 -0.153086 
-0.132402 0.0501052 -0.153406 -0.12592 -0.0572365 -0.148001 -0.116068 -0.0389055 -0.149079 
-0.110188 -0.0361054 -0.147284 -0.112561 -0.0320265 -0.150206 -0.105418 -0.00719184 -0.150332 
-0.102195 -0.00758634 -0.147743 -0.111506 -0.00380314 -0.150979 -0.108569 -0.00411143 -0.149118 
-0.0974851 -0.00535611 -0.146927 -0.109888 -0.000618249 -0.149678 -0.132334 0.000403605 -0.148968 
-0.107894 0.00184595 -0.150349 -0.103569 0.000387604 -0.148552 -0.11655 0.00504273 -0.148451 
-0.110302 0.00928372 -0.149584 -0.115068 0.0321469 -0.149326 -0.115783 0.0410142 -0.147525 
-0.142269 -0.0493913 -0.146487 -0.0964326 -0.0231687 -0.145034 -0.0944296 -0.0202338 -0.144571 
-0.0955458 -0.0151072 -0.145677 -0.0966863 -0.0105934 -0.146086 -0.0937515 -0.00578455 -0.144197 
-0.0897243 -0.00648088 -0.143731 -0.105787 -0.000696581 -0.145242 -0.11907 0.00348048 -0.144233 
-0.095972 0.0107019 -0.14611 -0.121633 0.013363 -0.145508 -0.0939295 0.0127022 -0.145092 
-0.0916287 0.0133708 -0.143279 -0.0909324 0.0170942 -0.14333 -0.0941098 0.0212226 -0.144359 
-0.0848334 -0.00905791 -0.14151 -0.0838394 -0.00456364 -0.140256 -0.142868 0.00172358 -0.141237 
-0.0857501 0.00346785 -0.142127 -0.0980919 0.00596344 -0.143834 -0.0879022 0.00575628 -0.143002 
-0.0832064 0.00628385 -0.140993 -0.094139 0.0107471 -0.141971 -0.0854127 0.0114192 -0.140534 
-0.0894181 0.0207129 -0.141394 -0.100372 -0.0555702 -0.13851 -0.0959484 -0.0470645 -0.139057 
-0.0860255 -0.0414092 -0.137057 -0.0795912 -0.0294665 -0.137004 -0.0723792 -0.0100876 -0.136213 
-0.0852884 -0.00354844 -0.136494 -0.0790794 -0.00547833 -0.13763 -0.104262 -0.00190537 -0.137875 
-0.0764606 -0.000818504 -0.137188 -0.105599 0.00145235 -0.139024 -0.0877869 0.00204694 -0.137445 
-0.078301 0.00224996 -0.138992 -0.0757455 0.00437723 -0.136788 -0.110342 0.0140191 -0.138639 
-0.0813671 0.0121486 -0.137669 -0.0820063 0.020924 -0.138467 -0.0841406 0.0269565 -0.138172 
-0.0800566 0.0330156 -0.136572 -0.0878097 0.0471093 -0.136265 -0.0785147 -0.0227215 -0.135095 
-0.0739885 -0.0189523 -0.136136 -0.064258 -0.00444876 -0.13306 -0.0721406 -0.00257887 -0.134574 
-0.0781775 0.00779165 -0.136064 -0.0722554 0.00768532 -0.135237 -0.0659287 0.00989131 -0.132518 
-0.0671221 0.0228536 -0.132677 -0.0817259 -0.0509585 -0.132459 -0.0701383 -0.0118795 -0.129832 
-0.10076 -0.00572206 -0.131975 -0.0880165 -0.00374482 -0.132114 -0.0624532 -0.00555246 -0.129548 
-0.082868 0.000758037 -0.132362 -0.0856866 0.00492783 -0.131072 -0.0601146 0.00721031 -0.131177 
-0.0617757 0.0111835 -0.130056 -0.06655 0.0281146 -0.131732 -0.0845898 -0.0127013 -0.126346 
-0.0555082 -0.00464773 -0.128243 -0.0718631 -0.00179681 -0.126293 -0.0467026 0.00195507 -0.125703 
-0.0757255 0.00482728 -0.129612 -0.0690915 0.00681623 -0.127144 -0.067388 0.00946004 -0.128842 
-0.0515735 0.0107939 -0.126343 -0.0570587 0.0172158 -0.128164 -0.0710954 -0.0267468 -0.1238 
-0.0605659 -0.0180554 -0.125029 -0.0488246 -0.0178294 -0.124094 -0.0420965 -0.0132376 -0.122873 
-0.0705428 -0.00858602 -0.123536 -0.0412453 -0.00891383 -0.123038 -0.0479651 -0.00617009 -0.124325 
-0.0531141 -0.00323119 -0.123639 -0.0458981 -0.00135775 -0.123716 -0.0413593 -0.0017375 -0.123419 
-0.0404556 0.00117921 -0.12312 -0.0412986 0.00886343 -0.123158 -0.0472243 0.0126567 -0.123608 
-0.0420361 0.0152193 -0.122114 -0.0541938 0.0207846 -0.123007 -0.0511127 -0.0450387 -0.121615 
-0.0873207 -0.0394221 -0.120987 -0.0438998 -0.0247657 -0.121123 -0.0363356 -0.0189538 -0.119206 
-0.0383185 -0.015593 -0.121497 -0.0749591 -0.0121754 -0.119804 -0.0356985 -0.0119647 -0.119962 
-0.0326405 -0.0106714 -0.118389 -0.0398857 -0.00829767 -0.119757 -0.0343987 -0.00824668 -0.119173 
-0.0468436 -0.0055997 -0.119401 -0.0339318 -0.00431857 -0.119052 -0.0330131 -0.000280118 -0.118783 
-0.0385493 0.00252326 -0.121206 -0.0652651 0.00456544 -0.120064 -0.0554762 0.00590524 -0.120235 
-0.038394 0.00702938 -0.121803 -0.0811195 0.0080544 -0.12148 -0.0725969 0.011836 -0.119242 
-0.0397006 0.0134275 -0.118127 -0.0744205 0.0163327 -0.118966 -0.0460105 -0.0300418 -0.116599 
-0.0436977 -0.0264314 -0.116077 -0.032744 -0.0272689 -0.116087 -0.0402761 -0.0224515 -0.118032 
-0.0376222 -0.0155477 -0.1156 -0.0332474 -0.0146155 -0.117918 -0.0273793 -0.0113511 -0.116025 
-0.0692488 -0.00515551 -0.11721 -0.0377665 -0.00595921 -0.116802 -0.0283064 -0.00527335 -0.11734 
-0.0252713 -0.00634857 -0.115454 -0.0704408 0.002806 -0.117693 -0.0349077 0.00466042 -0.117522 
-0.0304398 0.0060224 -0.118764 -0.0652613 0.00832207 -0.116737 -0.0434645 0.00869668 -0.117507 
-0.0319313 0.00821176 -0.117422 -0.0277285 0.00760936 -0.117491 -0.0447163 0.0117785 -0.118031 
-0.0314314 0.0128987 -0.116112 -0.0340518 0.0171915 -0.115212 -0.0378681 0.0205772 -0.115414 
-0.0301438 0.0265216 -0.11567 -0.0370167 0.0309854 -0.116214 -0.0488478 0.0431333 -0.116914 
-0.033341 -0.0324433 -0.115043 -0.0312683 -0.0244731 -0.112927 -0.0345058 -0.0231863 -0.113972 
-0.0303101 -0.0164815 -0.114914 -0.058644 -0.0110478 -0.113275 -0.0234036 -0.0120766 -0.112239 
-0.0280753 -0.00797306 -0.112131 -0.0182001 -0.00698332 -0.113093 -0.0215993 -0.000245067 -0.112865 
-0.042495 0.0113523 -0.112172 -0.0279188 0.0141693 -0.114424 -0.0194191 0.0128739 -0.111577 
-0.0183262 0.0167585 -0.11149 -0.0293319 0.0214209 -0.117131 -0.0303014 -0.0593664 -0.108723 
-0.0169682 -0.0262016 -0.108123 -0.0416206 -0.0184483 -0.109423 -0.0309119 -0.0207084 -0.114277 
-0.0487888 -0.0131723 -0.109701 -0.0304536 -0.0123493 -0.111819 -0.0663349 -0.00326463 -0.111076 
-0.00811268 -0.00158479 -0.108838 -0.0489042 0.0188383 -0.1087 -0.0428281 0.022931 -0.108455 
-0.0272952 0.0231858 -0.11345 -0.0249155 0.0301057 -0.111379 -0.0119206 0.0309558 -0.108489 
-0.0352762 -0.0226888 -0.106305 -0.0165852 -0.015619 -0.104512 -0.0275689 -0.00324349 -0.104369 
-0.0186559 -0.00136551 -0.106921 -0.0199382 -0.00341978 -0.104219 -0.0443295 0.00451447 -0.1067 
-0.0425664 0.0079942 -0.105731 -0.0287347 0.00837185 -0.103989 -0.0210555 0.00806893 -0.10782 
-0.0324895 0.0169111 -0.105955 -0.0260321 0.0149514 -0.107012 -0.044866 0.0193679 -0.107286 
-0.0340111 0.0266228 -0.108218 -0.0156597 0.0278931 -0.104633 -0.0447278 0.0626582 -0.107855 
-0.0124027 -0.0254774 -0.103347 -0.0171117 -0.02331 -0.10597 -0.0226276 0.00922594 -0.101776 
-0.0207471 0.0140984 -0.10368 0.00195702 0.0264317 -0.102738 -0.00726836 0.0302015 -0.101704 
-0.0203439 -0.0193455 -0.102945 -0.014458 -0.0138423 -0.103326 -0.00968967 -0.00588877 -0.102962 
-0.00730513 0.0257586 -0.10364 -0.00413281 -0.00792779 -0.0999691 -0.0152744 0.0211746 -0.100492 
-0.0170652 -0.0214262 -0.0939263 -0.0158837 -0.0171309 -0.0917607 -0.0255762 0.00585265 -0.093143 
-0.0231605 0.0109416 -0.0903618 -0.0124469 0.0108555 -0.0935287 -0.0306741 -0.0048619 -0.0853601 
-0.0148123 0.0147393 -0.0838452 -0.0109595 0.0300204 -0.0852847 -0.0265082 0.034934 -0.0857358 
-0.00757771 0.0326856 -0.0829542 -0.0349344 -0.00127292 -0.0811907 -0.0095853 0.0256603 -0.0794189 
-0.0242978 0.00020127 -0.0787416 -0.0279163 0.0200822 -0.0736866 -0.0196325 0.0295097 -0.0730999 
-0.0341543 -0.0265255 -0.0703197 -0.0165238 0.0194762 -0.0700594 -0.0196571 -0.0325483 -0.0685314 
-0.0208036 0.00162734 -0.0683095 -0.00343388 0.0316676 -0.067619 -0.0108823 -0.0240914 -0.0649313 
-0.00434932 -0.0129336 -0.0626014 -0.00296015 0.00664907 -0.0623618 -0.0120408 -0.0289279 -0.0607447 
-0.0303622 -0.0214325 -0.0601024 -0.0188893 -0.0164448 -0.0613668 -0.027048 -0.0348853 -0.0556476 
-0.0141191 -0.0138017 -0.0575338 -0.0252225 -0.00395457 -0.0571233 -0.00418171 -0.00447311 -0.0511478 
-0.0250889 0.00553727 -0.0522858 -0.0184752 -0.0330418 -0.0498299 -0.00344499 -0.0220199 -0.0481212 
-0.00876558 -0.00149609 -0.047573 -0.0256427 -0.020268 -0.0443331 -0.0241229 -0.00156433 -0.0437695 
-0.0346461 0.030431 -0.0446876 -0.00515441 0.000607433 -0.0406043 -0.0204765 0.00703928 -0.0434827 
-0.0293092 0.0266251 -0.0433542 -0.0318304 -0.0270523 -0.0368345 -0.0259008 0.01415 -0.0388643 
-0.0118162 -0.0172965 -0.034569 -0.0107355 -0.0111371 -0.0344061 -0.0288367 0.021507 -0.03642 
-0.0208274 -0.00751444 -0.0312499 -0.0344795 0.0306845 -0.0320537 -0.00974267 0.00154746 -0.028368 
-0.0310028 0.00427373 -0.0269705 -0.0224693 0.00786627 -0.0290385 -0.026015 0.0234799 -0.0289534 
-0.0282123 0.0119421 -0.0234153 -0.00304149 0.01634 -0.0231577 -0.0145727 0.0196597 -0.0230193 
-0.00482279 0.0319284 -0.0245899 -0.0258414 -0.0246135 -0.0191708 -0.0292124 -0.00857811 -0.0221469 
-0.0120659 -0.000928847 -0.020911 -0.00423369 0.00513081 -0.0210159 -0.000558622 -0.0225112 -0.0180196 
-0.0230867 -0.0218823 -0.0144904 -0.0250933 5.52728e-05 -0.0120782 -0.00209585 -0.0253397 -0.0112325 
-0.0131172 0.0174599 -0.0100781 -0.0054599 -0.0346412 -0.00700814 -0.00205387 -0.0284209 -0.00580982 
-0.0318304 -0.0245036 -0.0072103 -0.00797106 -0.0174946 -0.00377235 -0.00426265 -0.00806252 -0.00307361 
-0.0153561 0.00561382 -0.00284341 -0.029449 0.0175582 -0.00255035 -0.00209743 -0.0197497 -0.000699824 
-0.032644 -0.0063197 0.000973899 -0.00532413 0.00347482 0.00239774 -0.0135917 0.0274385 -0.000646727 
-0.0196875 0.000933277 0.00556326 -0.00315638 0.017114 0.00398785 -0.0215522 -0.0188967 0.00725298 
-0.00977287 0.0109784 0.00644501 -0.0243451 0.0195956 0.00633525 -0.0168696 0.0180085 0.00817428 
-0.0135751 0.0240704 0.00772903 -0.0164984 0.0336061 0.0075325 -0.00832892 -0.0172649 0.0107208 
-0.0184795 -0.0269407 0.0158725 -0.00858455 -0.00884288 0.014164 -0.00390427 -0.00527178 0.0151887 
-0.0310592 -0.00121585 0.0154612 -0.0162721 0.0114791 0.0137227 -0.00937081 0.0258081 0.0168951 
-0.00665099 -0.0147089 0.0198347 -0.0206177 -0.0113305 0.019912 -0.0123384 -0.0119647 0.019932 
-0.00639582 0.00662071 0.0189842 -0.0104872 0.0175218 0.0204561 -0.029518 -0.0259191 0.0234004 
-0.00657095 -0.0222035 0.020819 -0.0213451 -0.000776551 0.0228107 -0.0079193 0.0298979 0.0224228 
-0.0235714 -0.0119867 0.0258108 -0.0220216 -0.0115727 0.0305628 -0.0173855 -0.0338902 0.0334569 
-0.00676706 -0.00981008 0.0335325 -0.0321609 -0.00607507 0.0316903 -0.0299907 0.00855733 0.0315484 
-0.00131466 0.00705789 0.033532 -0.0311671 0.0123986 0.0344091 -0.0077538 0.0171361 0.0325167 
-0.00221027 0.0186146 0.0326034 -0.0107659 0.0283687 0.0345337 -0.0183398 -0.0212097 0.0368987 
-0.0223604 0.0276055 0.0377024 -0.00517262 0.0323307 0.0382033 -0.0138788 -0.0162448 0.0417786 
-0.0208051 -0.0257611 0.0453742 -0.00399213 -0.0264375 0.0427923 -0.0287336 -0.0143436 0.0423833 
-0.00452227 -8.57609e-05 0.042365 -0.0318082 0.0208697 0.0440578 -0.0232248 0.018953 0.0425696 
-0.00341211 0.0279138 0.0449885 -0.00154371 -0.0346722 0.0477451 -0.0239192 -0.011198 0.0469974 
-0.00558275 -0.00455966 0.0469521 -0.0193685 0.0119819 0.0484113 -0.0345917 -0.0281976 0.0502275 
-0.0293509 -0.0255557 0.0493247 -0.00861311 0.0156758 0.0522827 -0.0191536 0.0271245 0.0504861 
-0.0124901 0.0292455 0.0519823 -0.0184641 0.0346143 0.0520573 -0.0216218 -0.0306886 0.0552524 
-0.0188515 -0.0248569 0.0540735 -0.0319573 -0.0211048 0.0528592 -0.0215899 -0.0111508 0.055658 
-0.0067008 0.0110709 0.0538899 -0.0255212 -0.0322233 0.0565137 -0.00801538 0.0199359 0.0576156 
-0.0291051 0.026364 0.0584673 
VERTICES 418 836
1 0 
1 1 
1 2 
1 3 
1 4 
1 5 
1 6 
1 7 
1 8 
1 9 
1 10 
1 11 
1 12 
1 13 
1 14 
1 15 
1 16 
1 17 
1 18 
1 19 
1 20 
1 21 
1 22 
1 23 
1 24 
1 25 
1 26 
1 27 
1 28 
1 29 
1 30 
1 31 
1 32 
1 33 
1 34 
1 35 
1 36 
1 37 
1 38 
1 39 
1 40 
1 41 
1 42 
1 43 
1 44 
1 45 
1 46 
1 47 
1 48 
1 49 
1 50 
1 51 
1 52 
1 53 
1 54 
1 55 
1 56 
1 57 
1 58 
1 59 
1 60 
1 61 
1 62 
1 63 
1 64 
1 65 
1 66 
1 67 
1 68 
1 69 
1 70 
1 71 
1 72 
1 73 
1 74 
1 75 
1 76 
1 77 
1 78 
1 79 
1 80 
1 81 
1 82 
1 83 
1 84 
1 85 
1 86 
1 87 
1 88 
1 89 
1 90 
1 91 
1 92 
1 93 
1 94 
1 95 
1 96 
1 97 
1 98 
1 99 
1 100 
1 101 
1 102 
1 103 
1 104 
1 105 
1 106 
1 107 
1 108 
1 109 
1 110 
1 111 
1 112 
1 113 
1 114 
1 115 
1 116 
1 117 
1 118 
1 119 
1 120 
1 121 
1 122 
1 123 
1 124 
1 125 
1 126 
1 127 
1 128 
1 129 
1 130 
1 131 
1 132 
1 133 
1 134 
1 135 
1 136 
1 137 
1 138 
1 139 
1 140 
1 141 
1 142 
1 143 
1 144 
1 145 
1 146 
1 147 
1 148 
1 149 
1 150 
1 151 
1 152 
1 153 
1 154 
1 155 
1 156 
1 157 
1 158 
1 159 
1 160 
1 161 
1 162 
1 163 
1 164 
1 165 
1 166 
1 167 
1 168 
1 169 
1 170 
1 171 
1 172 
1 173 
1 174 
1 175 
1 176 
1 177 
1 178 
1 179 
1 180 
1 181 
1 182 
1 183 
1 184 
1 185 
1 186 
1 187 
1 188 
1 189 
1 190 
1 191 
1 192 
1 193 
1 194 
1 195 
1 196 
1 197 
1 198 
1 199 
1 200 
1 201 
1 202 
1 203 
1 204 
1 205 
1 206 
1 207 
1 208 
1 209 
1 210 
1 211 
1 212 
1 213 
1 214 
1 215 
1 216 
1 217 
1 218 
1 219 
1 220 
1 221 
1 222 
1 223 
1 224 
1 225 
1 226 
1 227 
1 228 
1 229 
1 230 
1 231 
1 232 
1 233 
1 234 
1 235 
1 236 
1 237 
1 238 
1 239 
1 240 
1 241 
1 242 
1 243 
1 244 
1 245 
1 246 
1 247 
1 248 
1 249 
1 250 
1 251 
1 252 
1 253 
1 254 
1 255 
1 256 
1 257 
1 258 
1 259 
1 260 
1 261 
1 262 
1 263 
1 264 
1 265 
1 266 
1 267 
1 268 
1 269 
1 270 
1 271 
1 272 
1 273 
1 274 
1 275 
1 276 
1 277 
1 278 
1 279 
1 280 
1 281 
1 282 
1 283 
1 284 
1 285 
1 286 
1 287 
1 288 
1 289 
1 290 
1 291 
1 292 
1 293 
1 294 
1 295 
1 296 
1 297 
1 298 
1 299 
1 300 
1 301 
1 302 
1 303 
1 304 
1 305 
1 306 
1 307 
1 308 
1 309 
1 310 
1 311 
1 312 
1 313 
1 314 
1 315 
1 316 
1 317 
1 318 
1 319 
1 320 
1 321 
1 322 
1 323 
1 324 
1 325 
1 326 
1 327 
1 328 
1 329 
1 330 
1 331 
1 332 
1 333 
1 334 
1 335 
1 336 
1 337 
1 338 
1 339 
1 340 
1 341 
1 342 
1 343 
1 344 
1 345 
1 346 
1 347 
1 348 
1 349 
1 350 
1 351 
1 352 
1 353 
1 354 
1 355 
1 356 
1 357 
1 358 
1 359 
1 360 
1 361 
1 362 
1 363 
1 364 
1 365 
1 366 
1 367 
1 368 
1 369 
1 370 
1 371 
1 372 
1 373 
1 374 
1 375 
1 376 
1 377 
1 378 
1 379 
1 380 
1 381 
1 382 
1 383 
1 384 
1 385 
1 386 
1 387 
1 388 
1 389 
1 390 
1 391 
1 392 
1 393 
1 394 
1 395 
1 396 
1 397 
1 398 
1 399 
1 400 
1 401 
1 402 
1 403 
1 404 
1 405 
1 406 
1 407 
1 408 
1 409 
1 410 
1 411 
1 412 
1 413 
1 414 
1 415 
1 416 
1 417 

POINT_DATA 418
FIELD FieldData 7
id 1 418 int
56 9 16 24 34 30 183 131 19 
31 3 32 6 10 22 26 33 23 
7 38 1 2 60 13 5 21 54 
11 28 40 57 68 42 27 48 41 
108 58 50 29 18 36 45 79 87 
85 101 43 14 99 83 88 15 69 
49 70 46 44 8 4 52 12 51 
17 35 72 93 92 67 61 84 100 
64 65 73 59 20 76 104 62 47 
39 125 112 174 96 63 156 166 116 
55 75 130 126 147 74 94 111 103 
158 109 142 71 122 82 118 95 37 
25 89 53 121 114 150 187 148 90 
154 81 163 110 120 144 136 78 162 
128 133 134 97 105 91 140 98 66 
113 124 167 175 123 141 143 80 127 
138 86 165 132 177 170 77 145 155 
164 157 176 117 153 172 139 146 161 
102 178 129 204 191 149 135 169 193 
152 115 106 160 207 180 214 199 119 
137 171 205 252 192 212 168 258 219 
227 221 190 220 196 233 184 182 181 
244 200 245 230 179 228 189 217 253 
186 265 226 235 198 197 247 185 208 
271 223 206 254 243 257 151 215 216 
255 262 218 225 188 272 259 248 229 
231 238 242 213 260 107 237 211 270 
202 268 159 264 209 232 269 210 173 
224 251 239 249 250 203 194 236 240 
234 246 222 274 256 201 195 278 266 
241 263 261 275 276 277 273 286 267 
289 279 287 284 288 285 290 280 282 
283 281 297 302 294 299 300 298 295 
293 291 292 296 301 313 315 314 309 
312 308 306 311 310 303 304 307 305 
327 326 321 324 328 322 317 318 319 
320 325 334 335 316 323 340 330 329 
332 337 333 331 339 336 338 345 344 
352 346 350 347 351 349 341 342 343 
348 366 353 357 363 365 358 354 356 
362 359 364 355 360 376 371 361 375 
373 379 367 377 369 374 368 372 378 
370 389 391 383 380 387 386 384 390 
388 385 381 392 382 397 403 400 394 
402 395 398 401 396 404 399 393 413 
405 412 417 410 411 418 415 409 408 
407 406 416 414 
type 1 418 int
1 1 1 1 1 1 1 1 1 
1 1 1 1 1 1 1 1 1 
1 1 1 1 1 1 1 1 1 
1 1 1 1 1 1 1 1 1 
1 1 1 1 1 1 1 1 1 
1 1 1 1 1 1 1 1 1 
1 1 1 1 1 1 1 1 1 
1 1 1 1 1 1 1 1 1 
1 1 1 1 1 1 1 1 1 
1 1 1 1 1 1 1 1 1 
1 1 1 1 1 1 1 1 1 
1 1 1 1 1 1 1 1 1 
1 1 1 1 1 1 1 1 1 
1 1 1 1 1 1 1 1 1 
1 1 1 1 1 1 1 1 1 
1 1 1 1 1 1 1 1 1 
1 1 1 1 1 1 1 1 1 
1 1 1 1 1 1 1 1 1 
1 1 1 1 1 1 1 1 1 
1 1 1 1 1 1 1 1 1 
1 1 1 1 1 1 1 1 1 
1 1 1 1 1 1 1 1 1 
1 1 1 1 1 1 1 1 1 
1 1 1 1 1 1 1 1 1 
1 1 1 1 1 1 1 1 1 
1 1 1 1 1 1 1 1 1 
1 1 1 1 1 1 1 1 1 
1 1 1 1 1 1 1 1 1 
1 1 1 1 1 1 1 1 1 
1 1 1 1 1 1 1 1 1 
1 1 1 1 1 1 1 1 1 
1 1 1 1 1 1 1 1 1 
1 1 1 1 1 1 1 1 1 
1 1 1 1 1 1 1 1 1 
1 1 1 1 1 1 1 1 1 
1 1 1 1 1 1 1 1 1 
1 1 1 1 1 1 1 1 1 
1 1 1 1 1 1 1 1 1 
1 1 1 1 1 1 1 1 1 
1 1 1 1 1 1 1 1 1 
1 1 1 1 1 1 1 1 1 
1 1 1 1 1 1 1 1 1 
1 1 1 1 1 1 1 1 1 
1 1 1 1 1 1 1 1 1 
1 1 1 1 1 1 1 1 1 
1 1 1 1 1 1 1 1 1 
1 1 1 1 
i 3 418 int
0 0 0 0 0 0 0 0 0 
0 0 0 0 0 0 0 0 0 
0 0 0 0 0 0 0 0 0 
0 0 0 0 0 0 0 0 0 
0 0 0 0 0 0 0 0 0 
0 0 0 0 0 0 0 0 0 
0 0 0 0 0 0 0 0 0 
0 0 0 0 0 0 0 0 0 
0 0 0 0 0 0 0 0 0 
0 0 0 0 0 0 0 0 0 
0 0 0 0 0 0 0 0 0 
0 0 0 0 0 0 0 0 0 
0 0 0 0 0 0 0 0 0 
0 0 0 0 0 0 0 0 0 
0 0 0 0 0 0 0 0 0 
0 0 0 0 0 0 0 0 0 
0 0 0 0 0 0 0 0 0 
0 0 0 0 0 0 0 0 0 
0 0 0 0 0 0 0 0 0 
0 0 0 0 0 0 0 0 0 
0 0 0 0 0 0 0 0 0 
0 0 0 0 0 0 0 0 0 
0 0 0 0 0 0 0 0 0 
0 0 0 0 0 0 0 0 0 
0 0 0 0 0 0 0 0 0 
0 0 0 0 0 0 0 0 0 
0 0 0 0 0 0 0 0 0 
0 0 0 0 0 0 0 0 0 
0 0 0 0 0 0 0 0 0 
0 0 0 0 0 0 0 0 0 
0 0 0 0 0 0 0 0 0 
0 0 0 0 0 0 0 0 0 
0 0 0 0 0 0 0 0 0 
0 0 0 0 0 0 0 0 0 
0 0 0 0 0 0 0 0 0 
0 0 0 0 0 0 0 0 0 
0 0 0 0 0 0 0 0 0 
0 0 0 0 0 0 0 0 0 
0 0 0 0 0 0 0 0 0 
0 0 0 0 0 0 0 0 0 
0 0 0 0 0 0 0 0 0 
0 0 0 0 0 0 0 0 0 
0 0 0 0 0 0 0 0 0 
0 0 0 0 0 0 0 0 0 
0 0 0 0 0 0 0 0 0 
0 0 0 0 0 0 0 0 0 
0 0 0 0 0 0 0 0 0 
0 0 0 0 0 0 0 0 0 
0 0 0 0 0 0 0 0 0 
0 0 0 0 0 0 0 0 0 
0 0 0 0 0 0 0 0 0 
0 0 0 0 0 0 0 0 0 
0 0 0 0 0 0 0 0 0 
0 0 0 0 0 0 0 0 0 
0 0 0 0 0 0 0 0 0 
0 0 0 0 0 0 0 0 0 
0 0 0 0 0 0 0 0 0 
0 0 0 0 0 0 0 0 0 
0 0 0 0 0 0 0 0 0 
0 0 0 0 0 0 0 0 0 
0 0 0 0 0 0 0 0 0 
0 0 0 0 0 0 0 0 0 
0 0 0 0 0 0 0 0 0 
0 0 0 0 0 0 0 0 0 
0 0 0 0 0 0 0 0 0 
0 0 0 0 0 0 0 0 0 
0 0 0 0 0 0 0 0 0 
0 0 0 0 0 0 0 0 0 
0 0 0 0 0 0 0 0 0 
0 0 0 0 0 0 0 0 0 
0 0 0 0 0 0 0 0 0 
0 0 0 0 0 0 0 0 0 
0 0 0 0 0 0 0 0 0 
0 0 0 0 0 0 0 0 0 
0 0 0 0 0 0 0 0 0 
0 0 0 0 0 0 0 0 0 
0 0 0 0 0 0 0 0 0 
0 0 0 0 0 0 0 0 0 
0 0 0 0 0 0 0 0 0 
0 0 0 0 0 0 0 0 0 
0 0 0 0 0 0 0 0 0 
0 0 0 0 0 0 0 0 0 
0 0 0 0 0 0 0 0 0 
0 0 0 0 0 0 0 0 0 
0 0 0 0 0 0 0 0 0 
0 0 0 0 0 0 0 0 0 
0 0 0 0 0 0 0 0 0 
0 0 0 0 0 0 0 0 0 
0 0 0 0 0 0 0 0 0 
0 0 0 0 0 0 0 0 0 
0 0 0 0 0 0 0 0 0 
0 0 0 0 0 0 0 0 0 
0 0 0 0 0 0 0 0 0 
0 0 0 0 0 0 0 0 0 
0 0 0 0 0 0 0 0 0 
0 0 0 0 0 0 0 0 0 
0 0 0 0 0 0 0 0 0 
0 0 0 0 0 0 0 0 0 
0 0 0 0 0 0 0 0 0 
0 0 0 0 0 0 0 0 0 
0 0 0 0 0 0 0 0 0 
0 0 0 0 0 0 0 0 0 
0 0 0 0 0 0 0 0 0 
0 0 0 0 0 0 0 0 0 
0 0 0 0 0 0 0 0 0 
0 0 0 0 0 0 0 0 0 
0 0 0 0 0 0 0 0 0 
0 0 0 0 0 0 0 0 0 
0 0 0 0 0 0 0 0 0 
0 0 0 0 0 0 0 0 0 
0 0 0 0 0 0 0 0 0 
0 0 0 0 0 0 0 0 0 
0 0 0 0 0 0 0 0 0 
0 0 0 0 0 0 0 0 0 
0 0 0 0 0 0 0 0 0 
0 0 0 0 0 0 0 0 0 
0 0 0 0 0 0 0 0 0 
0 0 0 0 0 0 0 0 0 
0 0 0 0 0 0 0 0 0 
0 0 0 0 0 0 0 0 0 
0 0 0 0 0 0 0 0 0 
0 0 0 0 0 0 0 0 0 
0 0 0 0 0 0 0 0 0 
0 0 0 0 0 0 0 0 0 
0 0 0 0 0 0 0 0 0 
0 0 0 0 0 0 0 0 0 
0 0 0 0 0 0 0 0 0 
0 0 0 0 0 0 0 0 0 
0 0 0 0 0 0 0 0 0 
0 0 0 0 0 0 0 0 0 
0 0 0 0 0 0 0 0 0 
0 0 0 0 0 0 0 0 0 
0 0 0 0 0 0 0 0 0 
0 0 0 0 0 0 0 0 0 
0 0 0 0 0 0 0 0 0 
0 0 0 0 0 0 0 0 0 
0 0 0 0 0 0 0 0 0 
0 0 0 0 0 0 0 0 0 
0 0 0 0 0 0 0 0 0 
0 0 0 
v 3 418 double
-1.43649 -0.136263 -0.612957 -1.24802 -0.129635 -0.521691 -1.14029 0.00405926 -0.486636 
-1.40772 -0.000328332 -0.222476 -1.20056 -0.236001 -0.433083 -1.05622 0.0329429 -0.4373 
-0.552884 0.338637 -0.523364 -0.489124 -0.0436046 -0.212853 -1.2611 -0.066365 -0.640446 
-1.11089 0.154851 -0.443374 -1.06158 0.166085 -0.457869 -0.985184 0.123783 -0.420658 
-0.780867 0.0183665 -0.346525 -0.763144 -0.0662422 -0.3132 -0.937834 0.0490336 -0.35262 
-1.09132 0.169879 -0.41659 -0.965245 -0.112569 -0.402978 -0.790352 -0.0120684 -0.325147 
-0.935778 -0.0513384 -0.25477 -1.18523 0.291004 -0.149349 -0.943309 0.0424943 -0.390207 
-1.03755 -0.225566 -0.724297 -0.975412 -0.114978 -0.407217 -0.815021 0.0287843 -0.335187 
-0.943492 0.0885296 -0.423973 -0.911928 0.101732 -0.365181 -0.825407 0.114043 -0.499293 
-0.869505 0.20013 -0.668578 -0.897537 0.154366 -0.354083 -0.777442 -0.0315084 -0.345519 
-0.806867 -0.0199635 -0.352752 -1.12478 0.0563571 -0.397111 -0.748016 -0.00038974 -0.331106 
-1.09976 0.114049 -0.576207 -0.799658 0.157402 -0.295913 -0.865169 0.0867227 -0.332397 
-1.09284 -0.121283 -0.385397 -1.04012 -0.256183 -0.324235 -0.622835 -0.0344729 -0.257982 
-0.694066 -0.0140485 -0.296588 -0.679934 0.0365346 -0.283144 -0.883982 -0.0821962 -0.517469 
-0.762654 -0.090359 -0.248228 -1.09893 -0.212237 -0.557397 -0.648609 -0.0331825 -0.257367 
-0.645977 0.0814846 -0.246982 -0.830307 0.0334876 -0.502145 -0.730539 0.137938 -0.314824 
-0.717569 0.0114969 -0.308894 -1.01855 -0.0670229 -0.412876 -0.938384 -0.362692 -0.340614 
-0.92258 -0.0894552 -0.479161 -0.657635 -0.0629024 -0.245717 -0.467987 -0.0402791 -0.162752 
-0.797181 -0.0197984 -0.328185 -0.732321 -0.0320038 -0.607648 -0.712772 -0.0170001 -0.374208 
-0.772329 -0.0659805 -0.337009 -0.848907 0.0275205 -0.338687 -0.852089 -0.0683697 -0.352686 
-0.686627 -0.10273 -0.156268 -0.575243 -0.103434 -0.234333 -0.674439 0.0249617 -0.0837993 
-0.671674 -0.0754034 -0.28799 -0.647215 -0.101492 -0.272012 -1.0148 0.0439145 -0.66615 
-0.805773 -0.0533643 -0.429958 -0.922467 0.0383677 -0.386384 -0.853599 -0.121126 -0.330869 
-0.548618 -0.204935 -0.146267 -0.70585 -0.0644416 -0.25209 -0.877536 0.114087 -0.398355 
-0.720225 0.0136908 -0.306485 -0.507889 0.00415095 -0.292754 -0.564394 -0.116664 -0.24499 
-0.795713 0.128358 -0.284333 -0.777084 0.0778066 -0.345558 -0.805115 -0.104118 -0.301633 
-0.805335 -0.127257 -0.306512 -0.883913 -0.260797 -0.324324 -0.773863 -0.0332759 -0.333834 
-0.765401 -0.129409 -0.330082 -0.835776 -0.0512771 -0.699146 -0.760739 0.0246883 -0.734787 
-0.909995 -0.0321525 -0.341154 -0.72859 -0.0393092 -0.345973 -0.88379 0.00919005 -0.170184 
-0.758059 0.0801606 -0.359667 -0.926195 -0.0743678 -0.37675 -0.844907 -0.198023 -0.249311 
-0.722795 -0.109186 -0.24293 -0.89569 0.230183 -0.265551 -0.980224 0.0303016 -0.370256 
-1.03618 -0.43509 -0.7778 -0.837037 0.0827004 -0.364987 -0.722638 0.0637532 -0.313768 
-0.661721 -0.0769919 -0.272579 -0.550202 -0.177344 -0.208585 -0.725233 -0.103071 -0.199604 
-0.686595 -0.0183332 -0.290323 -0.937176 -0.00747743 -0.397752 -0.962735 -0.0182138 -0.193856 
-0.7497 0.102679 -0.305017 -0.967222 0.0163124 -0.402104 -0.623471 -0.0426063 -0.264159 
-0.617814 0.0224358 -0.325302 -0.673578 -0.076256 -0.280972 -0.745823 -0.0104583 -0.311525 
-0.653917 0.0482426 -0.280924 -0.535185 -0.0507947 -0.222609 -0.789769 -0.0534328 -0.0407114 
-0.633999 0.0285406 -0.265478 -0.790828 0.278762 -0.86208 -0.681215 0.00754821 -0.285891 
-0.757922 -0.236218 -0.333439 -0.879891 0.228258 -0.767088 -0.656602 -0.136698 -0.252571 
-0.66221 0.0273602 -0.267378 -0.711494 -0.294974 -0.159782 -0.818323 -0.248775 -0.17208 
-0.521258 -0.0625794 -0.196682 -0.669262 -0.129136 -0.254608 -0.552795 0.0518001 -0.237665 
-0.768199 0.00700461 -0.274938 -0.515935 0.0057716 -0.266629 -0.814561 -0.159827 -0.629352 
-0.538687 0.062417 -0.231521 -0.767675 -0.0798792 -0.722924 -0.721012 0.264699 -0.785259 
-0.549019 0.0182236 -0.258069 -0.622589 0.0638714 -0.252749 -0.785109 0.0914827 0.179868 
-0.734284 0.00749112 -0.0516925 -0.603848 0.105362 -0.270685 -0.454939 0.0113524 -0.186899 
-0.396322 0.105425 -0.145467 -0.641427 0.333384 -0.154814 -0.761135 0.0815401 -0.570242 
-0.759038 -0.00842306 -0.316524 -0.507567 0.0284608 -0.216024 -0.542914 0.242394 -0.461244 
-0.720871 0.257066 -0.869596 -0.583394 0.0291208 -0.308846 -0.512357 -0.0550238 -0.234698 
-0.730314 -0.112315 -0.300257 -0.586471 -0.0979348 -0.210645 -0.557084 0.0352568 -0.611238 
-0.963723 0.268565 -0.506647 -0.890587 0.29075 -0.486328 -0.421851 0.13884 -0.0932585 
-0.774557 0.0466027 -0.425752 -0.749636 0.177467 -0.659203 -0.493242 -0.0661078 -0.213352 
-0.514134 -0.0374379 -0.263424 -0.636521 -0.054798 -0.273316 -0.832266 -0.179886 -0.502815 
-0.578985 0.0464981 -0.235124 -0.662004 0.109338 -0.304185 -0.340858 0.154218 -0.300517 
-0.673532 0.284254 -0.71196 -0.836593 0.150206 -0.245072 -0.581247 0.0907265 -0.413135 
-0.526423 0.0481848 -0.225673 -0.463161 0.0207725 -0.187364 -0.488742 -0.117456 -0.440113 
-0.629556 0.205163 -0.381275 -0.492995 0.117643 -0.465547 -0.620953 0.103856 -0.256198 
-0.48143 0.00189296 -0.50285 -0.512068 0.140751 -0.238658 -0.35728 0.0785843 -0.319329 
-0.55204 0.028793 -0.301038 -0.376516 0.125674 -0.405975 -0.203768 0.104019 -0.0922261 
-0.412594 0.104827 -0.143209 -0.255874 -0.392365 -0.108969 -0.712457 -0.225496 -0.439729 
-0.578922 -0.270574 -0.144345 -0.480711 0.244091 -0.0762252 -0.418136 -0.04653 -0.159752 
-0.718017 -0.258545 -0.437056 -0.550715 -0.192851 -0.512815 -0.364204 0.0465653 -0.161502 
-0.68898 -0.0116088 -0.326766 -0.89999 0.0184928 -0.344558 -0.494048 -0.0525688 -0.250151 
-0.42069 0.10645 0.00390288 -0.580435 0.119228 -0.0823312 -0.637857 0.0176818 -0.0508518 
-0.756248 -0.00870097 -0.339321 -0.451172 -0.110375 -0.10035 -0.553419 0.0187067 -0.221108 
-0.538263 0.286562 -0.194358 -0.874506 -0.348042 -0.419783 -0.988333 0.0898184 -0.0626766 
-0.386863 0.177736 -0.238726 -0.720465 -0.294153 -0.372493 -0.717043 -0.319756 -0.404294 
-1.10618 -0.0760445 0.457557 -0.720911 -0.321481 -0.324219 -0.922909 -0.225532 -0.565062 
-0.905179 -0.109608 -0.657541 -0.186618 0.0890413 -0.314738 -0.697717 0.0975413 -0.408944 
-0.391135 0.0763434 -0.175144 -0.339453 0.0681309 -0.113904 -0.158546 0.142156 -0.252392 
-0.747568 0.139546 -0.375744 -0.915968 0.437587 0.0333461 -0.382105 0.547858 -0.106025 
-0.433914 -0.159291 -0.237136 -0.758237 0.0215414 -0.229818 -0.711779 -0.00150231 -0.331051 
-0.524926 -0.0651187 0.164199 -0.720821 -0.261927 -0.43996 -0.581831 -0.151805 -0.335136 
-1.11762 0.12282 -0.103151 -0.479964 -0.0768818 -0.21693 -0.69161 -0.347614 -0.242717 
-0.655589 0.0300404 0.118645 -0.655967 -0.404201 -0.100124 -1.0082 -0.40069 -0.297809 
-0.422928 0.157694 -0.464551 -0.690537 0.119793 -0.532509 -0.628509 0.306556 -0.22087 
0.0395071 -0.419462 -1.03775 -0.740401 0.481556 0.17785 -0.538677 -0.431841 -0.82998 
-0.452716 0.385906 -0.258225 -0.721806 0.26499 -0.407298 0.761612 -0.0568804 -0.0910025 
-0.75152 0.140284 0.180733 -0.819067 -0.0397883 -0.143393 -0.370921 -0.0261116 -0.189465 
-0.748781 -0.135245 0.0383393 -0.652913 0.287751 -0.0317766 -0.299354 0.280733 -0.0533559 
-0.0742635 0.43646 -0.0173762 -0.96438 -0.379853 -0.119609 -0.273859 -0.110782 -0.0706288 
-0.103871 0.156261 -0.291095 -0.570975 0.350351 -0.33293 0 0 -2.05502 
-0.737562 0.057558 -0.371117 0 0 -2.04324 -0.588376 -0.269288 -0.455519 
-0.127045 0.247246 0.212635 -0.721182 -0.262058 -0.20582 -0.700108 -0.328583 -0.067928 
0.0400375 -0.0956104 -1.2983 -0.13543 0.0949851 -0.407651 -0.22675 0.0153385 -0.0946094 
-0.744531 0.256881 -0.335963 -0.668234 0.192312 -0.0712021 -0.735902 0.106645 -0.0190451 
-0.479179 -0.160404 0.0527456 -0.719632 -0.0267337 0.0963081 -0.733904 -0.173621 -0.255683 
-0.70501 -0.170946 -0.292589 -0.70979 -0.145812 -0.0163968 -0.381666 -0.27074 -1.07475 
-0.738288 -0.172433 -0.0187045 -0.719218 -0.147749 0.131305 -0.718563 -0.261107 -0.188395 
0 0 -2.02588 -0.782845 -0.267996 -0.199817 -0.62777 0.377698 -0.382674 
0.0377387 -0.335671 -0.0729724 0 0 -2.01499 -0.578291 -0.176308 -0.54765 
-0.514362 0.259102 -0.256227 0.34248 -0.359555 0.140153 -0.63616 -0.296134 0.124243 
0 0 -2.00018 0 0 -2.00204 0 0 -2.00028 
0 0 -2.00361 0 0 -1.98556 0 0 -1.98811 
0 0 -1.95544 0 0 -1.94456 0 0 -1.95152 
0 0 -1.93749 0 0 -1.95348 0 0 -1.91199 
0 0 -1.90424 0 0 -1.91159 0 0 -1.91395 
0 0 -1.89963 0 0 -1.8905 0 0 -1.88128 
0 0 -1.87775 0 0 -1.85116 0 0 -1.84803 