# vtk DataFile Version 4.0
Generated by LIGGGHTS
ASCII
DATASET POLYDATA
POINTS 824 float
-0.262162 -0.085447 -0.172178 -0.207097 -0.0102941 -0.191776 -0.205989 -0.0155862 -0.190761 
-0.207911 -0.00183343 -0.1922 -0.203605 -0.0212031 -0.189859 -0.206604 -0.0106678 -0.186232 
-0.205899 -0.0196214 -0.191386 -0.202364 0.00293489 -0.190208 -0.206973 -0.0352542 -0.188488 
-0.202248 -0.0276373 -0.187242 -0.202497 -0.0143279 -0.184096 -0.474162 0.00301694 -0.398881 
-0.440114 0.0121587 -0.399153 -0.477163 -0.0169412 -0.395042 -0.500159 0.000362623 -0.394268 
-0.452141 -0.00228352 -0.394212 -0.463213 0.00780469 -0.393759 -0.469275 -0.0166303 -0.389128 
-0.475626 -0.000607517 -0.392249 -0.469795 0.00598842 -0.391466 -0.473482 0.0114052 -0.389043 
-0.468646 0.000305495 -0.387696 -0.461133 0.00402439 -0.386917 -0.473888 0.00887616 -0.38249 
-0.463109 0.00962893 -0.384306 -0.46258 -0.0117251 -0.375367 -0.460016 -0.00251997 -0.377598 
-0.454756 -0.000628275 -0.376311 -0.46328 0.00767547 -0.37627 -0.46027 -0.0172295 -0.373304 
-0.453655 0.00126548 -0.369953 -0.43521 -0.0145268 -0.363713 -0.44874 -0.000905153 -0.364729 
-0.457659 0.0105751 -0.363944 -0.465514 0.0212812 -0.363884 -0.456268 -0.0127892 -0.363027 
-0.433815 -0.00706594 -0.360558 -0.453814 0.012667 -0.360368 -0.453122 -0.00711779 -0.358361 
-0.449253 0.00708775 -0.357268 -0.458122 0.022573 -0.358617 -0.457093 -0.00956079 -0.35477 
-0.453604 0.0289457 -0.353271 -0.451234 -0.00660802 -0.349165 -0.440319 0.00447061 -0.34807 
-0.440552 0.0085776 -0.350262 -0.435697 0.00651995 -0.350837 -0.450789 -0.0114369 -0.347036 
-0.417922 0.00271726 -0.348277 -0.428022 0.00722299 -0.344782 -0.447051 0.0103133 -0.345485 
-0.432034 -0.00928359 -0.333438 -0.416002 0.0139406 -0.335828 -0.430434 -0.0120246 -0.332012 
-0.420926 0.00585339 -0.329944 -0.416564 0.00566484 -0.329103 -0.429578 0.00856077 -0.329507 
-0.418316 -0.0165407 -0.327092 -0.41493 0.00263707 -0.325254 -0.431951 0.00586503 -0.327816 
-0.429208 0.020396 -0.327976 -0.421193 -0.0159841 -0.32259 -0.417046 -0.0143476 -0.321756 
-0.41461 -0.01006 -0.323639 -0.420664 0.00433317 -0.322359 -0.415755 -0.017126 -0.31756 
-0.41362 -0.0108353 -0.31679 -0.406582 -0.0233533 -0.313195 -0.398912 -0.0156249 -0.307494 
-0.392238 -0.0126157 -0.30708 -0.411354 -0.00481897 -0.30931 -0.406789 -0.00308644 -0.308391 
-0.405139 -0.0141637 -0.302597 -0.409125 -0.0106515 -0.304598 -0.398212 -0.00821432 -0.303818 
-0.404926 0.0116754 -0.304552 -0.412047 -0.0207439 -0.301806 -0.413503 -0.0135642 -0.301985 
-0.403603 -0.0103828 -0.300915 -0.394619 0.0164368 -0.298672 -0.410494 -0.0384365 -0.297222 
-0.400001 -0.0130962 -0.29721 -0.39403 -0.0129038 -0.295912 -0.400148 0.00094105 -0.297115 
-0.393254 0.00411328 -0.296617 -0.391003 0.00869122 -0.296155 -0.396768 0.0246183 -0.296668 
-0.395563 0.034394 -0.294483 -0.398985 -0.00869739 -0.293981 -0.39584 -0.00209393 -0.294148 
-0.385589 0.0147363 -0.292358 -0.387354 0.0171874 -0.292556 -0.393682 -0.0159873 -0.289603 
-0.393075 -0.0107768 -0.289911 -0.385286 0.0102349 -0.289794 -0.3864 -0.00700763 -0.283606 
-0.38378 0.00227891 -0.286454 -0.388869 0.00632441 -0.285421 -0.384557 0.00881677 -0.283801 
-0.383428 0.015759 -0.285843 -0.385898 -0.0128833 -0.280078 -0.390824 0.0146219 -0.282739 
-0.37328 -0.00801609 -0.276775 -0.372136 -0.000313246 -0.276788 -0.367695 0.00196746 -0.278874 
-0.381513 0.00364028 -0.278094 -0.369314 0.00735115 -0.275568 -0.372882 0.0102032 -0.275891 
-0.374976 -0.0191049 -0.27264 -0.370712 -0.0169327 -0.274147 -0.371318 -0.0121948 -0.27377 
-0.367216 -0.0119023 -0.272954 -0.371478 -0.00485667 -0.274407 -0.359971 -0.000356439 -0.270908 
-0.36666 0.00390024 -0.270954 -0.365457 0.00748633 -0.273396 -0.361797 0.00950522 -0.274235 
-0.375834 -0.034982 -0.268474 -0.371142 -0.0269544 -0.269215 -0.368319 -0.0198844 -0.268995 
-0.371405 -0.0133423 -0.268323 -0.364228 -0.00830331 -0.26709 -0.368823 -0.00636412 -0.26896 
-0.374642 0.000264644 -0.268134 -0.358013 -0.000644888 -0.267964 -0.362534 0.00228283 -0.26943 
-0.36199 0.0056131 -0.268194 -0.371365 0.00744031 -0.267822 -0.372633 0.0127625 -0.270047 
-0.365634 -0.0124306 -0.266426 -0.363553 -0.00931203 -0.262825 -0.361054 -0.00512454 -0.263685 
-0.382007 -0.000220057 -0.265781 -0.355637 -0.00155809 -0.262599 -0.354216 0.0024737 -0.264154 
-0.360008 0.00318353 -0.265154 -0.360965 0.00910229 -0.263309 -0.366388 0.018751 -0.264834 
-0.35436 -1.661e-05 -0.260304 -0.364955 0.000996334 -0.260975 -0.358513 0.00222661 -0.261531 
-0.351779 0.00383795 -0.259492 -0.371007 0.00897916 -0.259249 -0.356055 0.00857446 -0.26248 
-0.357371 0.0114101 -0.263455 -0.358567 0.0150876 -0.26065 -0.353444 -0.0114992 -0.256813 
-0.353352 0.00736254 -0.257976 -0.350459 0.0113355 -0.258222 -0.339776 0.00978813 -0.258479 
-0.357611 0.0193856 -0.257708 -0.360576 -0.0353068 -0.25266 -0.352885 -0.0224543 -0.25258 
-0.348349 -0.0190544 -0.254023 -0.339733 -0.0180404 -0.250044 -0.344332 -0.0120865 -0.251641 
-0.343426 -0.0075857 -0.254295 -0.34617 -0.00475134 -0.252818 -0.341488 -0.00641591 -0.249794 
-0.340152 -0.0039125 -0.250895 -0.343316 0.00258452 -0.25315 -0.338581 0.00034493 -0.251827 
-0.342319 0.00655716 -0.251495 -0.347669 0.00709175 -0.25434 -0.350461 0.012517 -0.253922 
-0.342623 0.00969081 -0.25127 -0.337161 -0.0166465 -0.247491 -0.35236 -0.00978292 -0.250293 
-0.339124 -0.0124977 -0.248193 -0.344917 -0.00764802 -0.24926 -0.337801 -0.00767968 -0.247688 
-0.336973 -0.00012456 -0.247773 -0.346232 0.0219556 -0.25008 -0.348012 0.0291865 -0.24976 
-0.33185 -0.0141306 -0.245035 -0.324488 -0.00798992 -0.24245 -0.329945 -0.00613849 -0.24504 
-0.333014 -0.00245621 -0.245731 -0.330724 0.00291607 -0.244642 -0.325194 0.000736458 -0.242181 
-0.325791 0.0056696 -0.243229 -0.326325 0.00929272 -0.243239 -0.337607 0.0128968 -0.247297 
-0.32894 0.0179893 -0.24318 -0.338632 0.0214775 -0.247262 -0.322026 -0.0104022 -0.240196 
-0.323285 -0.0052215 -0.242118 -0.32037 -0.00346521 -0.239967 -0.320469 0.0121646 -0.240504 
-0.32696 0.0137522 -0.242019 -0.31883 0.0169858 -0.23899 -0.338243 0.0399148 -0.240412 
-0.312508 -0.0159346 -0.236481 -0.308028 -0.00799035 -0.234629 -0.307567 0.000156509 -0.23583 
-0.308481 0.00631006 -0.235826 -0.316439 0.0154424 -0.237994 -0.329701 0.0326937 -0.239466 
-0.309055 -0.0162597 -0.235047 -0.305484 -0.0115657 -0.234255 -0.304284 -0.00448576 -0.234288 
-0.305779 0.00379316 -0.233131 -0.30941 0.0109862 -0.234838 -0.299011 0.00821755 -0.23171 
-0.304577 0.0126146 -0.23378 -0.301179 0.012503 -0.232353 -0.303225 0.0151241 -0.232637 
-0.314099 -0.034026 -0.231605 -0.297574 -0.0197005 -0.229695 -0.300194 -0.0154297 -0.231607 
-0.294151 -0.00794019 -0.229886 -0.292958 -0.00492021 -0.229046 -0.295311 -0.00337114 -0.230541 
-0.292666 0.00107686 -0.229489 -0.296302 0.00738407 -0.230609 -0.297027 0.0113294 -0.229591 
-0.293391 0.0166098 -0.22795 -0.304185 0.021813 -0.230836 -0.30078 0.0246986 -0.229952 
-0.298761 0.0214262 -0.228649 -0.300993 0.0309468 -0.228325 -0.312578 0.0353763 -0.231473 
-0.298672 -0.0352733 -0.224825 -0.289226 -0.00939307 -0.226567 -0.284107 -0.0077308 -0.224581 
-0.286054 -0.0044518 -0.226597 -0.287738 -0.00172683 -0.2274 -0.29 0.00313032 -0.22715 
-0.281388 0.00161915 -0.2247 -0.285914 0.00538216 -0.226366 -0.28872 0.00935972 -0.225323 
-0.291828 0.0109728 -0.227419 -0.293873 0.0224591 -0.22643 -0.290009 0.0245575 -0.225574 
-0.312712 -0.0498227 -0.2247 -0.286574 -0.0303245 -0.222605 -0.272233 0.00447991 -0.220697 
-0.311541 0.0166087 -0.224244 -0.294932 0.016806 -0.223392 -0.287083 0.0184304 -0.224418 
-0.277927 0.0170276 -0.221841 -0.291508 0.0286185 -0.223924 -0.290712 0.0344129 -0.222954 
-0.28658 -0.0384527 -0.219862 -0.272698 -0.0186736 -0.219566 -0.27179 -0.0145439 -0.218677 
-0.282773 0.00859558 -0.223787 -0.267733 0.0128332 -0.218285 -0.306148 0.0389699 -0.220662 
-0.26 -0.0106516 -0.215256 -0.258668 -0.00251222 -0.215092 -0.256033 -0.00163007 -0.213742 
-0.256174 0.00669602 -0.213809 -0.264753 0.0215501 -0.215656 -0.272043 0.0257819 -0.21673 
-0.271788 -0.042223 -0.211258 -0.261552 -0.0298703 -0.212468 -0.253773 -0.0145242 -0.212171 
-0.254859 -0.0106045 -0.212329 -0.256564 -0.00595905 -0.213006 -0.249332 0.00773142 -0.21088 
-0.255365 0.0192873 -0.212081 -0.257851 0.022194 -0.212691 -0.247037 -0.0108931 -0.209772 
-0.242034 -0.00794004 -0.206761 -0.2436 0.00164654 -0.208711 -0.244101 0.0108132 -0.207489 
-0.243181 0.0157332 -0.206407 -0.250314 0.0255951 -0.208899 -0.252644 0.0360093 -0.20597 
-0.239933 -0.0280867 -0.204016 -0.240019 -0.0224935 -0.205189 -0.236624 -0.0202563 -0.204134 
-0.231573 -0.0152263 -0.20276 -0.237819 -0.00878507 -0.205781 -0.234672 -0.00760859 -0.203308 
-0.233426 0.00061286 -0.204414 -0.230509 0.000423779 -0.203202 -0.235314 0.00452228 -0.204027 
-0.230867 0.00416618 -0.203262 -0.239134 0.00785198 -0.20551 -0.239718 0.0187911 -0.204491 
-0.236057 0.0202765 -0.203904 -0.237054 0.0257809 -0.203311 -0.242251 0.0305967 -0.203147 
-0.244931 0.0350318 -0.204203 -0.266275 -0.0556734 -0.20354 -0.234863 -0.0230442 -0.201645 
-0.227596 -0.0234554 -0.19936 -0.228242 -0.020635 -0.200564 -0.224296 -0.0174977 -0.199439 
-0.226982 -0.0139027 -0.199826 -0.231183 -0.0112395 -0.201837 -0.226605 -0.00892202 -0.200114 
-0.228316 0.00238617 -0.202214 -0.225862 0.00372031 -0.201123 -0.225424 0.000843197 -0.200303 
-0.223116 0.00406584 -0.199968 -0.224826 0.0064833 -0.200631 -0.226776 0.00868303 -0.201399 
-0.240774 0.0135174 -0.203653 -0.225055 0.013902 -0.200138 -0.228396 0.0199432 -0.200736 
-0.230311 0.0237261 -0.201004 -0.238009 0.0302119 -0.202566 -0.225035 -0.0247886 -0.198358 
-0.218897 -0.00888658 -0.197939 -0.220048 -0.00523912 -0.198749 -0.219986 -0.00127928 -0.198775 
-0.217315 0.0031535 -0.197574 -0.220647 0.0084444 -0.197773 -0.222402 0.012721 -0.19915 
-0.218058 0.0118148 -0.197407 -0.220344 0.0166524 -0.196699 -0.223463 0.0185332 -0.198876 
-0.226943 0.0235674 -0.198516 -0.240366 0.0427991 -0.199598 -0.245207 0.0478789 -0.199546 
[...]
POINT_DATA 824
FIELD FieldData 7
id 1 824 int
499 482 522 599 515 366 543 495 501 
546 611 153 161 194 347 183 202 224 
191 97 178 170 141 230 215 117 123 
372 277 102 164 209 287 199 258 290 
185 278 218 206 151 205 223 211 129 
131 259 275 262 152 210 260 292 314 
243 155 299 282 239 271 300 119 302 
252 342 214 293 149 295 220 219 279 
286 189 180 208 320 348 115 309 337 
355 301 190 236 289 325 272 193 256 
184 288 221 212 318 315 207 266 323 
311 413 319 106 251 172 324 254 160 
365 249 317 313 217 169 341 250 197 
297 338 312 403 255 229 179 107 284 
310 308 242 350 379 280 396 225 235 
333 370 264 346 307 269 168 267 261 
352 380 253 240 345 213 332 381 405 
321 359 373 425 305 378 247 344 283 
322 306 294 389 237 406 303 391 316 
330 356 404 336 376 285 241 354 331 
334 411 383 401 504 329 226 291 173 
384 392 339 328 393 296 402 438 463 
335 248 441 395 367 377 326 414 298 
456 386 371 358 273 388 374 426 468 
429 419 362 369 448 439 535 432 409 
349 415 394 400 447 424 481 407 423 
398 437 276 457 584 421 410 496 490 
360 452 443 382 442 510 385 428 465 
473 399 446 523 467 195 462 470 513 
540 475 387 343 427 471 357 502 494 
464 460 430 351 472 434 451 500 469 
478 458 431 390 397 483 449 618 484 
418 363 476 422 408 433 466 375 554 
340 416 353 550 440 480 525 459 568 
479 435 412 364 368 453 450 509 417 
533 461 436 518 508 455 492 505 537 
526 477 573 541 596 560 561 558 583 
420 507 693 773 751 803 746 766 582 
805 743 538 579 759 529 530 740 361 
752 444 445 566 603 493 553 784 498 
514 454 556 548 572 768 578 630 520 
489 497 512 559 545 531 619 563 503 
589 488 551 491 588 528 591 524 574 
549 581 547 487 511 527 576 594 542 
506 645 474 517 615 627 519 565 604 
532 557 562 521 609 534 606 598 586 
620 516 676 486 577 602 564 485 656 
610 555 552 658 654 633 624 614 628 
567 675 682 711 650 595 661 587 570 
580 625 629 655 635 608 677 616 617 
571 612 632 644 621 698 575 673 719 
536 590 647 613 674 634 640 643 683 
544 607 631 585 671 641 600 734 692 
702 736 662 666 669 721 636 668 691 
539 685 637 592 712 657 742 699 642 
707 680 652 697 725 569 681 593 597 
653 688 648 622 639 638 660 649 665 
715 720 716 651 626 601 263 646 744 
678 713 670 700 684 717 679 703 623 
667 694 727 664 747 730 696 775 718 
755 701 690 704 672 686 739 663 733 
722 709 708 750 732 738 724 776 714 
756 771 737 753 728 735 762 741 748 
710 695 723 795 782 729 706 687 689 
763 726 853 998 999 1006 787 1000 772 
823 1003 1002 764 797 808 788 789 794 
774 813 761 790 997 791 811 852 1008 
1005 822 781 783 765 770 846 839 780 
792 848 835 812 785 828 796 793 754 
757 760 799 809 817 758 851 838 845 
826 836 801 705 798 827 833 800 810 
769 864 749 856 786 777 821 824 767 
806 731 843 802 840 807 778 804 815 
829 860 816 844 854 837 825 850 820 
849 659 842 834 861 841 855 831 779 
858 857 863 847 830 818 832 868 865 
866 867 814 819 859 862 745 874 881 
877 870 880 878 871 879 876 873 875 
872 869 892 894 882 883 605 887 891 
885 889 884 888 890 893 886 900 905 
897 898 902 896 906 907 899 904 903 
901 895 911 914 917 913 919 915 916 
908 920 909 910 918 912 924 933 923 
927 931 925 922 930 926 929 928 932 
921 945 944 935 943 940 938 941 946 
936 939 937 942 934 957 953 948 951 
956 947 954 955 958 949 950 961 952 
965 966 968 962 963 970 959 969 971 
964 967 960 976 972 978 983 975 981 
980 979 977 974 982 992 986 973 993 
989 991 987 995 988 984 990 994 1004 
1009 1007 996 985 1001 
type 1 824 int
1 1 1 1 1 1 1 1 1 
1 1 1 1 1 1 1 1 1 
1 1 1 1 1 1 1 1 1 
1 1 1 1 1 1 1 1 1 
1 1 1 1 1 1 1 1 1 
1 1 1 1 1 1 1 1 1 
1 1 1 1 1 1 1 1 1 
1 1 1 1 1 1 1 1 1 
1 1 1 1 1 1 1 1 1 
1 1 1 1 1 1 1 1 1 
1 1 1 1 1 1 1 1 1 
1 1 1 1 1 1 1 1 1 
1 1 1 1 1 1 1 1 1 
1 1 1 1 1 1 1 1 1 
1 1 1 1 1 1 1 1 1 
1 1 1 1 1 1 1 1 1 
1 1 1 1 1 1 1 1 1 
1 1 1 1 1 1 1 1 1 
1 1 1 1 1 1 1 1 1 
1 1 1 1 1 1 1 1 1 
1 1 1 1 1 1 1 1 1 
1 1 1 1 1 1 1 1 1 
1 1 1 1 1 1 1 1 1 
1 1 1 1 1 1 1 1 1 
1 1 1 1 1 1 1 1 1 
1 1 1 1 1 1 1 1 1 
1 1 1 1 1 1 1 1 1 
1 1 1 1 1 1 1 1 1 
1 1 1 1 1 1 1 1 1 
1 1 1 1 1 1 1 1 1 
1 1 1 1 1 1 1 1 1 
1 1 1 1 1 1 1 1 1 
1 1 1 1 1 1 1 1 1 
1 1 1 1 1 1 1 1 1 
1 1 1 1 1 1 1 1 1 
1 1 1 1 1 1 1 1 1 
1 1 1 1 1 1 1 1 1 
1 1 1 1 1 1 1 1 1 
1 1 1 1 1 1 1 1 1 
1 1 1 1 1 1 1 1 1 
1 1 1 1 1 1 1 1 1 
1 1 1 1 1 1 1 1 1 
1 1 1 1 1 1 1 1 1 
1 1 1 1 1 1 1 1 1 
1 1 1 1 1 1 1 1 1 
1 1 1 1 1 1 1 1 1 
1 1 1 1 1 1 1 1 1 
1 1 1 1 1 1 1 1 1 
1 1 1 1 1 1 1 1 1 
1 1 1 1 1 1 1 1 1 
1 1 1 1 1 1 1 1 1 
1 1 1 1 1 1 1 1 1 
1 1 1 1 1 1 1 1 1 
1 1 1 1 1 1 1 1 1 
1 1 1 1 1 1 1 1 1 
1 1 1 1 1 1 1 1 1 
1 1 1 1 1 1 1 1 1 
1 1 1 1 1 1 1 1 1 
1 1 1 1 1 1 1 1 1 
1 1 1 1 1 1 1 1 1 
1 1 1 1 1 1 1 1 1 
1 1 1 1 1 1 1 1 1 
1 1 1 1 1 1 1 1 1 
1 1 1 1 1 1 1 1 1 
1 1 1 1 1 1 1 1 1 
1 1 1 1 1 1 1 1 1 
1 1 1 1 1 1 1 1 1 
1 1 1 1 1 1 1 1 1 
1 1 1 1 1 1 1 1 1 
1 1 1 1 1 1 1 1 1 
1 1 1 1 1 1 1 1 1 
1 1 1 1 1 1 1 1 1 
1 1 1 1 1 1 1 1 1 
1 1 1 1 1 1 1 1 1 
1 1 1 1 1 1 1 1 1 
1 1 1 1 1 1 1 1 1 
1 1 1 1 1 1 1 1 1 
1 1 1 1 1 1 1 1 1 
1 1 1 1 1 1 1 1 1 
1 1 1 1 1 1 1 1 1 
1 1 1 1 1 1 1 1 1 
1 1 1 1 1 1 1 1 1 
1 1 1 1 1 1 1 1 1 
1 1 1 1 1 1 1 1 1 
1 1 1 1 1 1 1 1 1 
1 1 1 1 1 1 1 1 1 
1 1 1 1 1 1 1 1 1 
1 1 1 1 1 1 1 1 1 
1 1 1 1 1 1 1 1 1 
1 1 1 1 1 1 1 1 1 
1 1 1 1 1 1 1 1 1 
1 1 1 1 1 
i 3 824 int
0 0 0 0 0 0 0 0 0 
0 0 0 0 0 0 0 0 0 
0 0 0 0 0 0 0 0 0 
0 0 0 0 0 0 0 0 0 
0 0 0 0 0 0 0 0 0 
0 0 0 0 0 0 0 0 0 
0 0 0 0 0 0 0 0 0 
0 0 0 0 0 0 0 0 0 
0 0 0 0 0 0 0 0 0 
0 0 0 0 0 0 0 0 0 
0 0 0 0 0 0 0 0 0 
0 0 0 0 0 0 0 0 0 
0 0 0 0 0 0 0 0 0 
0 0 0 0 0 0 0 0 0 
0 0 0 0 0 0 0 0 0 
0 0 0 0 0 0 0 0 0 
0 0 0 0 0 0 0 0 0 
0 0 0 0 0 0 0 0 0 
0 0 0 0 0 0 0 0 0 
0 0 0 0 0 0 0 0 0 
0 0 0 0 0 0 0 0 0 
0 0 0 0 0 0 0 0 0 
0 0 0 0 0 0 0 0 0 
0 0 0 0 0 0 0 0 0 
0 0 0 0 0 0 0 0 0 
0 0 0 0 0 0 0 0 0 
0 0 0 0 0 0 0 0 0 
0 0 0 0 0 0 0 0 0 
0 0 0 0 0 0 0 0 0 
0 0 0 0 0 0 0 0 0 
0 0 0 0 0 0 0 0 0 
0 0 0 0 0 0 0 0 0 
0 0 0 0 0 0 0 0 0 
0 0 0 0 0 0 0 0 0 
0 0 0 0 0 0 0 0 0 
0 0 0 0 0 0 0 0 0 
0 0 0 0 0 0 0 0 0 
0 0 0 0 0 0 0 0 0 
0 0 0 0 0 0 0 0 0 
0 0 0 0 0 0 0 0 0 
0 0 0 0 0 0 0 0 0 
0 0 0 0 0 0 0 0 0 
0 0 0 0 0 0 0 0 0 
0 0 0 0 0 0 0 0 0 
0 0 0 0 0 0 0 0 0 
0 0 0 0 0 0 0 0 0 
0 0 0 0 0 0 0 0 0 
0 0 0 0 0 0 0 0 0 
0 0 0 0 0 0 0 0 0 
0 0 0 0 0 0 0 0 0 
0 0 0 0 0 0 0 0 0 
0 0 0 0 0 0 0 0 0 
0 0 0 0 0 0 0 0 0 
0 0 0 0 0 0 0 0 0 
0 0 0 0 0 0 0 0 0 
0 0 0 0 0 0 0 0 0 
0 0 0 0 0 0 0 0 0 
0 0 0 0 0 0 0 0 0 
0 0 0 0 0 0 0 0 0 
0 0 0 0 0 0 0 0 0 
0 0 0 0 0 0 0 0 0 
0 0 0 0 0 0 0 0 0 
0 0 0 0 0 0 0 0 0 
0 0 0 0 0 0 0 0 0 
0 0 0 0 0 0 0 0 0 
0 0 0 0 0 0 0 0 0 
0 0 0 0 0 0 0 0 0 
0 0 0 0 0 0 0 0 0 
0 0 0 0 0 0 0 0 0 
0 0 0 0 0 0 0 0 0 
0 0 0 0 0 0 0 0 0 
0 0 0 0 0 0 0 0 0 
0 0 0 0 0 0 0 0 0 
0 0 0 0 0 0 0 0 0 
0 0 0 0 0 0 0 0 0 
0 0 0 0 0 0 0 0 0 
0 0 0 0 0 0 0 0 0 
0 0 0 0 0 0 0 0 0 
0 0 0 0 0 0 0 0 0 
0 0 0 0 0 0 0 0 0 
0 0 0 0 0 0 0 0 0 
0 0 0 0 0 0 0 0 0 
0 0 0 0 0 0 0 0 0 
0 0 0 0 0 0 0 0 0 
0 0 0 0 0 0 0 0 0 
0 0 0 0 0 0 0 0 0 
0 0 0 0 0 0 0 0 0 
0 0 0 0 0 0 0 0 0 
0 0 0 0 0 0 0 0 0 
0 0 0 0 0 0 0 0 0 
0 0 0 0 0 0 0 0 0 
0 0 0 0 0 0 0 0 0 
0 0 0 0 0 0 0 0 0 
0 0 0 0 0 0 0 0 0 
0 0 0 0 0 0 0 0 0 
0 0 0 0 0 0 0 0 0 
0 0 0 0 0 0 0 0 0 
0 0 0 0 0 0 0 0 0 
0 0 0 0 0 0 0 0 0 
0 0 0 0 0 0 0 0 0 
0 0 0 0 0 0 0 0 0 
0 0 0 0 0 0 0 0 0 
0 0 0 0 0 0 0 0 0 
0 0 0 0 0 0 0 0 0 
0 0 0 0 0 0 0 0 0 
0 0 0 0 0 0 0 0 0 
0 0 0 0 0 0 0 0 0 
0 0 0 0 0 0 0 0 0 
0 0 0 0 0 0 0 0 0 
0 0 0 0 0 0 0 0 0 
0 0 0 0 0 0 0 0 0 
0 0 0 0 0 0 0 0 0 
0 0 0 0 0 0 0 0 0 
0 0 0 0 0 0 0 0 0 
0 0 0 0 0 0 0 0 0 
0 0 0 0 0 0 0 0 0 
0 0 0 0 0 0 0 0 0 
0 0 0 0 0 0 0 0 0 
0 0 0 0 0 0 0 0 0 
0 0 0 0 0 0 0 0 0 
0 0 0 0 0 0 0 0 0 
0 0 0 0 0 0 0 0 0 
0 0 0 0 0 0 0 0 0 
0 0 0 0 0 0 0 0 0 
0 0 0 0 0 0 0 0 0 
0 0 0 0 0 0 0 0 0 
0 0 0 0 0 0 0 0 0 
0 0 0 0 0 0 0 0 0 
0 0 0 0 0 0 0 0 0 
0 0 0 0 0 0 0 0 0 
0 0 0 0 0 0 0 0 0 
0 0 0 0 0 0 0 0 0 
0 0 0 0 0 0 0 0 0 
0 0 0 0 0 0 0 0 0 
0 0 0 0 0 0 0 0 0 
0 0 0 0 0 0 0 0 0 
0 0 0 0 0 0 0 0 0 
0 0 0 0 0 0 0 0 0 
0 0 0 0 0 0 0 0 0 
0 0 0 0 0 0 0 0 0 
0 0 0 0 0 0 0 0 0 
0 0 0 0 0 0 0 0 0 
0 0 0 0 0 0 0 0 0 
0 0 0 0 0 0 0 0 0 
0 0 0 0 0 0 0 0 0 
0 0 0 0 0 0 0 0 0 
0 0 0 0 0 0 0 0 0 
0 0 0 0 0 0 0 0 0 
0 0 0 0 0 0 0 0 0 
0 0 0 0 0 0 0 0 0 
0 0 0 0 0 0 0 0 0 
0 0 0 0 0 0 0 0 0 
0 0 0 0 0 0 0 0 0 
0 0 0 0 0 0 0 0 0 
0 0 0 0 0 0 0 0 0 
0 0 0 0 0 0 0 0 0 
0 0 0 0 0 0 0 0 0 
0 0 0 0 0 0 0 0 0 
0 0 0 0 0 0 0 0 0 
0 0 0 0 0 0 0 0 0 
0 0 0 0 0 0 0 0 0 
0 0 0 0 0 0 0 0 0 
0 0 0 0 0 0 0 0 0 
0 0 0 0 0 0 0 0 0 
0 0 0 0 0 0 0 0 0 
0 0 0 0 0 0 0 0 0 
0 0 0 0 0 0 0 0 0 
0 0 0 0 0 0 0 0 0 
0 0 0 0 0 0 0 0 0 
0 0 0 0 0 0 0 0 0 
0 0 0 0 0 0 0 0 0 
0 0 0 0 0 0 0 0 0 
0 0 0 0 0 0 0 0 0 
0 0 0 0 0 0 0 0 0 
0 0 0 0 0 0 0 0 0 
0 0 0 0 0 0 0 0 0 
0 0 0 0 0 0 0 0 0 
0 0 0 0 0 0 0 0 0 
0 0 0 0 0 0 0 0 0 
0 0 0 0 0 0 0 0 0 
0 0 0 0 0 0 0 0 0 
0 0 0 0 0 0 0 0 0 
0 0 0 0 0 0 0 0 0 
0 0 0 0 0 0 0 0 0 
0 0 0 0 0 0 0 0 0 
0 0 0 0 0 0 0 0 0 
0 0 0 0 0 0 0 0 0 
0 0 0 0 0 0 0 0 0 
0 0 0 0 0 0 0 0 0 
0 0 0 0 0 0 0 0 0 
0 0 0 0 0 0 0 0 0 
0 0 0 0 0 0 0 0 0 
0 0 0 0 0 0 0 0 0 
0 0 0 0 0 0 0 0 0 
0 0 0 0 0 0 0 0 0 
0 0 0 0 0 0 0 0 0 
0 0 0 0 0 0 0 0 0 
0 0 0 0 0 0 0 0 0 
0 0 0 0 0 0 0 0 0 
0 0 0 0 0 0 0 0 0 
0 0 0 0 0 0 0 0 0 
0 0 0 0 0 0 0 0 0 
0 0 0 0 0 0 0 0 0 
0 0 0 0 0 0 0 0 0 
0 0 0 0 0 0 0 0 0 
0 0 0 0 0 0 0 0 0 
0 0 0 0 0 0 0 0 0 
0 0 0 0 0 0 0 0 0 
0 0 0 0 0 0 0 0 0 
0 0 0 0 0 0 0 0 0 
0 0 0 0 0 0 0 0 0 
0 0 0 0 0 0 0 0 0 
0 0 0 0 0 0 0 0 0 
0 0 0 0 0 0 0 0 0 
0 0 0 0 0 0 0 0 0 
0 0 0 0 0 0 0 0 0 
0 0 0 0 0 0 0 0 0 
0 0 0 0 0 0 0 0 0 
0 0 0 0 0 0 0 0 0 
0 0 0 0 0 0 0 0 0 
0 0 0 0 0 0 0 0 0 
0 0 0 0 0 0 0 0 0 
0 0 0 0 0 0 0 0 0 
0 0 0 0 0 0 0 0 0 
0 0 0 0 0 0 0 0 0 
0 0 0 0 0 0 0 0 0 
0 0 0 0 0 0 0 0 0 
0 0 0 0 0 0 0 0 0 
0 0 0 0 0 0 0 0 0 
0 0 0 0 0 0 0 0 0 
0 0 0 0 0 0 0 0 0 
0 0 0 0 0 0 0 0 0 
0 0 0 0 0 0 0 0 0 
0 0 0 0 0 0 0 0 0 
0 0 0 0 0 0 0 0 0 
0 0 0 0 0 0 0 0 0 
0 0 0 0 0 0 0 0 0 
0 0 0 0 0 0 0 0 0 
0 0 0 0 0 0 0 0 0 
0 0 0 0 0 0 0 0 0 
0 0 0 0 0 0 0 0 0 
0 0 0 0 0 0 0 0 0 
0 0 0 0 0 0 0 0 0 
0 0 0 0 0 0 0 0 0 
0 0 0 0 0 0 0 0 0 
0 0 0 0 0 0 0 0 0 
0 0 0 0 0 0 0 0 0 
0 0 0 0 0 0 0 0 0 
0 0 0 0 0 0 0 0 0 
0 0 0 0 0 0 0 0 0 
0 0 0 0 0 0 0 0 0 
0 0 0 0 0 0 0 0 0 
0 0 0 0 0 0 0 0 0 
0 0 0 0 0 0 0 0 0 
0 0 0 0 0 0 0 0 0 
0 0 0 0 0 0 0 0 0 
0 0 0 0 0 0 0 0 0 
0 0 0 0 0 0 0 0 0 
0 0 0 0 0 0 0 0 0 
0 0 0 0 0 0 0 0 0 
0 0 0 0 0 0 0 0 0 
0 0 0 0 0 0 0 0 0 
0 0 0 0 0 0 0 0 0 
0 0 0 0 0 0 0 0 0 
0 0 0 0 0 0 0 0 0 
0 0 0 0 0 0 0 0 0 
0 0 0 0 0 0 0 0 0 
0 0 0 0 0 0 0 0 0 
0 0 0 0 0 0 0 0 0 
0 0 0 0 0 0 0 0 0 
0 0 0 0 0 0 0 0 0 
0 0 0 0 0 0 0 0 0 
0 0 0 0 0 0 0 0 0 
0 0 0 0 0 0 0 0 0 
0 0 0 0 0 0 
v 3 824 double
-0.95155 0.35604 -0.721984 -0.739388 0.0307521 -0.308026 -0.792224 -0.0377753 -0.323967 
-1.04739 -0.0632825 -0.683302 -0.764655 -0.161 -0.300954 -0.846406 -0.0220973 -0.19433 
-0.718558 -0.0533007 -0.292253 -0.572906 -0.0598107 -0.238087 -0.905974 -0.0916719 -0.348264 
-0.678369 -0.0556416 -0.26293 -1.05565 0.0347623 -0.35034 -1.08139 -0.0307907 -1.81237 
-0.844083 -0.0139612 -1.83261 -1.08722 0.01333 -1.78749 -1.35934 0.283724 -1.8583 
-1.01304 -0.197298 -1.87906 -1.02564 0.0286047 -1.79084 -1.08441 -0.0152823 -1.75834 
-1.13691 0.0621687 -1.78746 -1.01234 -0.0407536 -1.74974 -1.10239 0.00458917 -1.75322 
-1.08173 -0.00681234 -1.73035 -1.11338 0.00902931 -1.80667 -1.16829 0.255555 -1.75015 
-1.05704 -0.0221346 -1.73239 -1.11276 -0.0174279 -1.68925 -1.08033 0.0265767 -1.69157 
-1.06996 -0.0497087 -1.67817 -1.16487 -0.0278289 -1.72235 -1.13578 -0.0353817 -1.69511 
-1.0491 -0.061281 -1.63804 -0.904145 -0.0864301 -1.58871 -1.05512 0.139585 -1.62701 
-1.12687 -0.00547431 -1.61343 -1.2164 -0.134221 -1.67319 -1.10472 0.182418 -1.64482 
-0.914312 -0.0358974 -1.57134 -1.19539 -0.0596812 -1.64178 -1.15837 0.0255994 -1.58952 
-1.06454 -0.0534303 -1.54453 -1.18598 0.0133406 -1.61014 -1.20847 0.100333 -1.58833 
-1.14454 -0.0502975 -1.58764 -1.10167 0.0688633 -1.48724 -1.07654 0.135325 -1.52067 
-1.08704 -0.0654429 -1.55315 -0.988315 -0.0585331 -1.52913 -1.21534 0.0872638 -1.53346 
-0.922339 -0.0354127 -1.58148 -0.999721 0.112045 -1.50436 -1.17791 -0.0979554 -1.49145 
-1.10672 -0.0694735 -1.41082 -0.859968 -0.134624 -1.44464 -1.10149 -0.0704883 -1.39942 
-0.960219 0.050049 -1.36745 -0.954143 0.0332181 -1.36805 -1.14507 -0.146483 -1.42124 
-0.963045 -0.0675668 -1.36975 -0.966315 -0.00813597 -1.33734 -1.12307 -0.0114813 -1.34431 
-1.11947 -0.0587727 -1.40368 -1.11013 -0.0513517 -1.34541 -1.0474 -0.0533278 -1.36963 
-0.966921 -0.0215957 -1.32825 -1.09262 -0.139258 -1.36346 -1.08364 -0.0804219 -1.32007 
-1.00002 -0.0294596 -1.27071 -0.964282 -0.208926 -1.2467 -1.0399 0.0239732 -1.31682 
-0.920937 -0.15804 -1.24336 -1.18535 0.015645 -1.3388 -1.03822 -0.0725238 -1.2239 
-1.13507 0.175002 -1.2388 -1.09408 0.0509809 -1.20108 -0.931525 -0.0507589 -1.16087 
-1.09174 0.107324 -1.20007 -1.185 0.181286 -1.2427 -1.22956 0.218808 -1.23385 
-1.12599 0.0532058 -1.21445 -0.957441 0.00412971 -1.13919 -1.05424 0.0128972 -1.16616 
-1.0994 0.0609424 -1.17522 -1.0581 -0.260259 -1.13151 -1.07806 0.0159724 -1.13027 
-0.998607 -0.103271 -1.12675 -0.955503 -0.0809711 -1.12082 -0.981793 -0.03774 -1.14342 
-0.933584 0.0654867 -1.11033 -1.1218 0.0593473 -1.10442 -1.09674 -0.187604 -1.13201 
-0.918825 -0.0745457 -1.10103 -0.903137 -0.0626823 -1.08957 -1.09636 -0.00644754 -1.07044 
-1.02462 0.0728468 -1.04208 -0.917667 -0.0825723 -1.06862 -1.12261 0.112501 -1.02377 
-1.1057 -0.0822859 -1.08671 -1.13785 -0.0769281 -1.05863 -1.10061 -0.0949063 -1.03432 
-0.927815 -0.0557572 -1.01957 -1.20211 0.11334 -1.01556 -1.25622 -0.111964 -1.07651 
-0.937067 0.00432739 -0.914834 -0.918801 0.0548237 -0.910456 -0.897172 0.0806651 -0.983328 
-1.09055 -0.10352 -0.93491 -0.865269 0.0872996 -0.913135 -0.990953 0.0356527 -0.930173 
-1.07261 0.105866 -0.9253 -1.00141 -0.0479294 -0.985562 -0.935529 -0.0108325 -0.901421 
-0.9209 0.0381036 -0.875563 -0.954853 0.0254883 -0.920298 -0.76392 0.0590105 -0.858547 
-0.925343 0.0662725 -0.863757 -0.85201 0.0159211 -0.85466 -0.760905 0.0124987 -0.952614 
-1.02912 -0.0472918 -0.869968 -0.957283 0.00957379 -0.85816 -0.96573 -0.0302623 -0.838601 
-1.12827 0.0575809 -0.801958 -0.97657 0.060896 -0.848317 -0.97751 0.0643312 -0.824889 
-1.12071 0.123413 -0.877445 -0.849407 -0.00249987 -0.828034 -0.935655 -0.0389307 -0.854015 
-0.901075 -0.0182385 -0.819109 -1.06094 -0.0753973 -0.794394 -1.13862 -0.0137652 -0.899987 
-1.2095 0.0876381 -0.931292 -1.13238 0.0979883 -0.723062 -0.99625 0.0594318 -0.787929 
-1.33799 0.0333986 -1.02739 -0.819169 0.0463987 -0.716743 -0.854114 0.0622507 -0.77477 
-0.934124 -0.0763373 -0.784759 -1.06876 -0.0317377 -0.814622 -1.21787 -0.0518661 -0.871022 
-0.851679 0.0719661 -0.703441 -1.02909 -0.0378351 -0.719677 -0.968472 -0.0763169 -0.76462 
-0.843059 0.0562793 -0.682332 -1.15438 -0.0265574 -0.693554 -1.03471 -0.0487233 -0.81467 
-1.04059 -0.0404223 -0.855121 -1.13952 -0.0299208 -0.82424 -1.08619 -0.00364078 -0.718391 
-0.998687 0.0478707 -0.707641 -0.937475 0.00207854 -0.864699 -0.662324 -0.0890583 -0.854827 
-1.15658 -0.0380869 -0.769157 -1.13236 0.123357 -0.750482 -1.13637 -0.0599097 -0.685574 
-0.964021 0.000529939 -0.649631 -0.711178 -0.0649526 -0.507372 -1.16109 0.0929289 -0.651118 
-0.942141 -0.0142409 -0.682756 -0.933044 -0.00705687 -0.605685 -0.991333 0.0477219 -0.524146 
-0.897555 -0.0365125 -0.583147 -0.815737 0.027157 -0.627615 -0.815334 0.0221386 -0.681022 
-0.925822 0.0996932 -0.452871 -1.00077 -0.0351216 -0.67176 -1.16801 -0.120018 -0.676503 
-0.943988 -0.109909 -0.563439 -1.08271 0.0466134 -0.584859 -1.1395 0.122618 -0.624006 
-1.1299 0.049224 -0.617373 -0.952726 -0.0377757 -0.571105 -1.10807 0.0426357 -0.586576 
-0.968384 0.0418779 -0.509774 -1.24496 -0.140129 -0.730666 -1.24383 -0.262663 -0.780657 
-1.17191 0.136454 -0.562931 -1.04336 -0.0159088 -0.443413 -1.02054 -0.000885128 -0.488444 
-0.978124 0.0470432 -0.506046 -1.07744 -0.0424087 -0.535317 -1.01823 0.00288026 -0.459212 
-1.02417 -0.0508494 -0.472027 -1.03023 -0.0325939 -0.477105 -1.21292 -0.211826 -0.670324 
-1.11442 -0.0942779 -0.540187 -1.17575 -0.099752 -0.641737 -1.0561 -0.0338641 -0.435784 
-1.07785 0.00966422 -0.447724 -1.07675 0.0139145 -0.437436 -0.966507 -0.0780591 -0.411699 
-1.00241 -0.0354454 -0.469784 -0.843071 0.0315331 -0.346485 -1.11682 0.0692231 -0.506593 
-1.07092 0.0670104 -0.450475 -0.849116 0.121048 -0.370455 -1.12128 0.156689 -0.460317 
-0.928864 0.0284802 -0.38974 -0.996329 0.00455421 -0.49762 -1.16571 -0.288707 -0.616208 
-1.06568 0.0504185 -0.432313 -0.880393 0.0644943 -0.377415 -1.05146 0.1447 -0.448495 
-0.954229 -0.0391816 -0.433868 -1.01811 0.0852217 -0.423785 -0.983053 -0.0426322 -0.417342 
-1.03882 -0.0189702 -0.454988 -1.04398 -0.096251 -0.446641 -1.03914 -0.0191112 -0.415443 
-1.0336 0.124987 -0.41371 -1.07374 -0.0115303 -0.423559 -1.08082 -0.0170866 -0.452436 
-0.845909 -0.0928137 -0.343438 -0.896107 -0.0306599 -0.364362 -0.886817 -0.0209837 -0.3724 
-0.859825 0.0868113 -0.356876 -0.943131 0.0538074 -0.411046 -1.05234 -0.0460795 -0.44738 
-0.966709 -0.175572 -0.335969 -1.01246 -0.0190688 -0.426343 -1.02483 0.0334288 -0.421798 
-1.05679 -0.00353156 -0.441199 -0.885356 0.0492319 -0.336165 -1.24226 0.0826382 -0.47553 
-1.10544 -0.0640757 -0.370197 -0.960574 0.0144547 -0.40595 -0.875878 -0.0653085 -0.367153 
-0.890692 -0.0799146 -0.372876 -0.915778 -0.0594477 -0.384648 -0.921203 0.00489273 -0.388661 
-1.00986 -0.0836703 -0.430851 -0.914954 -0.00288332 -0.385761 -1.0222 -0.00219769 -0.376638 
-1.03491 -0.0527364 -0.440007 -1.06224 -0.00964372 -0.434582 -0.937729 -0.0783373 -0.36132 
-1.1351 0.259602 -0.620867 -0.957892 0.00852876 -0.370372 -0.806913 0.0857236 -0.338566 
-1.17184 0.130419 -0.563997 -1.31063 -0.0663258 -0.199727 -1.06134 -0.117208 -0.455098 
-1.06475 -0.116054 -0.478144 -1.24223 -0.04418 -0.536405 -0.892643 0.051096 -0.339982 
-1.09872 0.125109 -0.523923 -1.09007 0.0399994 -0.459221 -1.03191 0.0286093 -0.439526 
-0.845306 0.0936721 -0.166889 -0.97952 -0.0472716 -0.421434 -1.24004 0.302219 -0.765146 
-0.760103 -0.0881379 -0.307747 -0.805551 -0.0398661 -0.321363 -0.813546 0.00632992 -0.222847 
-0.680854 0.126692 -0.279448 -0.971089 0.0216912 -0.39979 -1.09113 -0.0711335 -0.483472 
-1.12935 0.0466126 -0.443923 -0.840042 -0.066857 -0.36785 -1.06955 0.0465979 -0.502948 
-0.959036 -0.145037 -0.672494 -1.01192 -0.0186253 -0.42533 -0.900217 0.0176836 -0.376091 
-0.892054 0.0850568 -0.364822 -0.96191 -0.0305125 -0.411011 -0.927845 0.0493452 -0.370037 
-0.907956 0.0082804 -0.402085 -0.996192 -0.0381278 -0.425228 -0.79089 0.096371 -0.327423 
-0.833064 0.0372594 -0.32754 -0.70872 -0.0608821 -0.31198 -0.800811 0.088684 -0.30196 
-0.999533 0.150483 -0.494887 -0.952567 0.0169432 -0.413647 -0.8896 0.0331425 -0.407912 
-0.771201 0.00659544 -0.330739 -0.926625 0.0721821 -0.392787 -0.88285 0.00350806 -0.342141 
-0.651088 -0.0496781 -0.291191 -0.757597 0.0383879 -0.323416 -0.966476 -0.0288307 -0.403729 
-0.944875 -0.0662311 -0.406269 -0.901498 -0.0144761 -0.376141 -0.834847 0.0383566 -0.315789 
-0.826517 0.0629352 -0.327579 -0.788996 0.00576493 -0.326487 -0.952733 -0.0313344 -0.406805 
-1.04551 -0.322595 -0.511828 -1.32808 -0.0388176 -0.502984 -0.885716 0.018108 -0.39166 
-0.847513 -0.00915451 -0.350074 -0.731001 0.02779 -0.327278 -0.854402 0.0193898 -0.368303 
-0.820048 0.0359528 -0.354079 -0.825319 0.0309433 -0.344923 -0.814758 0.0341767 -0.352561 
-0.747036 0.0839843 -0.327917 -0.742815 0.0649151 -0.341967 -0.93534 -0.00481841 -0.394426 
-0.809328 0.0179762 -0.325426 -0.889985 -0.0175338 -0.352513 -0.915303 -0.0589475 -0.381941 
-1.06182 -0.231237 -0.547567 -0.877148 -0.0552703 -0.379947 -0.884567 -0.0576762 -0.37363 
-0.949832 -0.0359903 -0.408532 -1.04599 -0.216718 -0.489032 -0.85763 -0.0971001 -0.327537 
-0.869442 -0.00982588 -0.359416 -0.904386 -0.139986 -0.361508 -0.848295 -0.0725693 -0.353944 
-0.68745 -0.0280574 -0.282729 -0.891663 0.0263544 -0.37038 -0.932534 -0.0155702 -0.399977 
-0.890954 0.0406999 -0.37606 -0.805709 -0.012344 -0.344688 -0.831621 -0.0237199 -0.346835 
-0.922687 0.0269294 -0.380361 -1.02297 -0.171358 -0.469777 -1.05895 -0.230688 -0.507405 
-0.776652 -0.132582 -0.293936 -0.704758 -0.101844 -0.252898 -0.728304 0.00092491 -0.311835 