# vtk DataFile Version 4.0
Generated by LIGGGHTS
ASCII
DATASET POLYDATA
POINTS 728 float
-0.203193 -0.0226194 -0.189895 -0.487571 0.0241893 -0.390707 -0.491031 0.0156977 -0.382177 
-0.465987 -0.0350426 -0.375205 -0.485335 -0.0182336 -0.370186 -0.46193 -0.00799477 -0.364868 
-0.467844 -0.0112295 -0.363518 -0.465277 0.0236683 -0.36312 -0.446622 0.0152065 -0.358103 
-0.451259 -0.02762 -0.355336 -0.461642 0.0230152 -0.353238 -0.45678 0.0134874 -0.352304 
-0.449212 0.00830118 -0.346644 -0.443339 -0.00515242 -0.345037 -0.426276 -0.00610825 -0.343727 
-0.443386 -0.00651352 -0.338657 -0.453533 -0.0390776 -0.333942 -0.433264 0.00417993 -0.330092 
-0.426299 0.0138252 -0.330415 -0.441095 0.0267884 -0.330328 -0.442767 0.0335671 -0.331462 
-0.434838 0.0114628 -0.326875 -0.438114 0.0575197 -0.325422 -0.425017 -0.0129498 -0.322734 
-0.426367 -0.00307987 -0.321681 -0.43421 0.00463617 -0.321611 -0.421654 0.00356121 -0.318479 
-0.417167 -0.0294977 -0.310317 -0.424448 0.00229935 -0.311812 -0.417234 0.00134558 -0.311704 
-0.412872 -0.000542119 -0.307079 -0.41375 0.0195465 -0.30624 -0.399775 -0.00390896 -0.299286 
-0.43246 -0.0464286 -0.296824 -0.396021 0.00329236 -0.296076 -0.402783 -0.0157499 -0.29428 
-0.408182 -0.00890049 -0.294721 -0.388264 -0.0114049 -0.291322 -0.392719 -0.00143889 -0.289724 
-0.397058 -6.47485e-05 -0.291561 -0.392015 0.00638583 -0.28867 -0.398769 0.0154968 -0.288483 
-0.380749 -0.0107758 -0.287244 -0.388267 -0.00424795 -0.282795 -0.385143 0.00403953 -0.28159 
-0.399341 0.035425 -0.281551 -0.38093 -0.00676894 -0.277681 -0.387662 0.0178635 -0.278027 
-0.384975 -0.0193065 -0.275885 -0.380055 -0.0144271 -0.275808 -0.367221 -0.000710022 -0.273778 
-0.379237 0.0180435 -0.275907 -0.37778 -0.0192296 -0.27047 -0.383869 -0.0100159 -0.272304 
-0.374708 -0.00846719 -0.2729 -0.373089 -0.00337577 -0.272568 -0.370497 0.00707316 -0.271029 
-0.369128 -0.0112432 -0.266756 -0.368219 -0.00723951 -0.268072 -0.361449 -0.000675145 -0.269058 
-0.366571 0.019188 -0.266293 -0.362269 -0.00179545 -0.262966 -0.361789 0.00318738 -0.265198 
-0.357955 0.00137148 -0.262751 -0.362656 0.00815149 -0.26493 -0.374544 0.0328547 -0.264733 
-0.359431 -0.0124877 -0.261344 -0.349075 0.00656352 -0.25562 -0.352294 0.0105916 -0.256367 
-0.350924 0.0153345 -0.255781 -0.356404 -0.0345418 -0.252245 -0.347381 -0.0169427 -0.252743 
-0.343066 -0.00977968 -0.252761 -0.341909 -0.00635664 -0.251273 -0.341014 -0.0148663 -0.248794 
-0.339391 -0.00457483 -0.248671 -0.345872 0.0237925 -0.249546 -0.334394 -0.0242386 -0.244163 
-0.333332 -0.0108097 -0.244937 -0.328076 0.00633847 -0.244514 -0.332979 0.00924555 -0.245236 
-0.330195 -0.0227317 -0.241553 -0.32299 -0.0205203 -0.240041 -0.327264 -0.0105277 -0.242437 
-0.323264 -0.00942667 -0.241845 -0.323624 -0.00609518 -0.242207 -0.317883 -0.00475738 -0.239962 
-0.326387 -0.00102255 -0.242607 -0.322178 0.00269135 -0.24074 -0.326069 0.0110973 -0.242991 
-0.328245 0.0191956 -0.242606 -0.338293 -0.040345 -0.238936 -0.334897 -0.0377808 -0.239321 
-0.331114 -0.0335178 -0.238566 -0.315896 -0.0213261 -0.237066 -0.315624 -0.0167986 -0.237345 
-0.313051 -0.0137586 -0.236986 -0.315968 -0.0100287 -0.238812 -0.309584 -0.00760739 -0.236412 
-0.312884 -0.00537397 -0.237883 -0.310207 0.000784289 -0.236901 -0.31457 0.00501903 -0.237386 
-0.310537 0.0128515 -0.236276 -0.323222 0.0306441 -0.23631 -0.314475 -0.0194498 -0.234535 
-0.30481 -0.0173275 -0.233107 -0.302354 -0.0066023 -0.233399 -0.307684 0.00349911 -0.235666 
-0.308083 0.00918425 -0.235477 -0.305491 0.00806225 -0.234339 -0.30807 0.0125791 -0.234435 
-0.305122 0.0119217 -0.233862 -0.309518 0.0154838 -0.235249 -0.31195 0.0183437 -0.23585 
-0.313564 0.024485 -0.23533 -0.32238 0.0397513 -0.233738 -0.3049 -0.0256043 -0.231413 
-0.296558 -0.0133317 -0.230309 -0.304595 -0.00621374 -0.229813 -0.292913 -0.00469346 -0.229483 
-0.298044 -0.00232912 -0.231719 -0.295831 -0.000547523 -0.23068 -0.298168 0.00308857 -0.23168 
-0.2992 0.00807241 -0.231799 -0.301111 0.0273765 -0.22957 -0.301931 -0.029404 -0.229337 
-0.298951 -0.026164 -0.227777 -0.303494 -0.0234258 -0.228247 -0.287789 -0.0209322 -0.22543 
-0.293307 -0.0177799 -0.228325 -0.292231 -0.021059 -0.227191 -0.294353 -0.0159836 -0.226041 
-0.290272 -0.0160243 -0.227363 -0.287944 -0.0048572 -0.22738 -0.29029 0.00838874 -0.226935 
-0.296955 -0.0382581 -0.22416 -0.287759 -0.0166448 -0.224234 -0.281118 0.00231832 -0.224542 
-0.284298 0.00972405 -0.225404 -0.308269 0.0464182 -0.224803 -0.282399 -0.0357244 -0.21916 
-0.269793 -0.00181871 -0.218753 -0.285218 0.00523163 -0.222632 -0.26925 0.0108183 -0.219104 
-0.278047 0.0124818 -0.221582 -0.276071 0.0200582 -0.219472 -0.301875 0.044942 -0.221903 
-0.269006 -0.0218837 -0.216179 -0.266289 -0.0119475 -0.217737 -0.265251 -0.00597136 -0.216677 
-0.264496 0.00768187 -0.214731 -0.266347 0.0121766 -0.216704 -0.277227 0.0150533 -0.216872 
-0.271201 0.0177559 -0.217857 -0.280849 0.0390349 -0.216331 -0.273188 -0.042703 -0.211756 
-0.258459 -0.0295597 -0.211198 -0.255846 -0.0152787 -0.212964 -0.255606 -0.0102294 -0.212377 
-0.260075 -0.00592493 -0.214497 -0.25526 -0.000334619 -0.213736 -0.250501 -0.00085951 -0.211733 
-0.26431 0.00215248 -0.214276 -0.258473 0.00671991 -0.213688 -0.255529 0.0182892 -0.212303 
-0.265717 0.0296604 -0.214187 -0.264114 0.0307628 -0.211398 -0.250009 -0.0197921 -0.209716 
-0.244769 -0.0134314 -0.208476 -0.242682 -0.011363 -0.207698 -0.250234 -0.0048512 -0.210397 
-0.251723 0.00287404 -0.211012 -0.245697 0.0025593 -0.208477 -0.248105 0.00607901 -0.21043 
-0.249096 0.0126454 -0.210442 -0.251226 0.0147308 -0.211036 -0.272825 0.0475924 -0.209345 
-0.242698 -0.0159961 -0.207289 -0.237295 -0.00568744 -0.205918 -0.236334 0.000412542 -0.205668 
-0.237493 0.00575296 -0.204894 -0.239892 0.0109317 -0.205679 -0.238594 0.0157895 -0.204502 
-0.241157 0.0235012 -0.205554 -0.248771 -0.0405137 -0.202783 -0.235753 -0.0102156 -0.203815 
-0.231628 -0.00650942 -0.202389 -0.227019 -0.00592715 -0.200522 -0.228713 -0.000407882 -0.201368 
-0.224783 1.46969e-05 -0.200761 -0.231637 0.00550061 -0.202466 -0.22804 0.00870873 -0.201938 
-0.262126 0.0518139 -0.204146 -0.230195 -0.0364281 -0.197688 -0.222257 -0.00924264 -0.199305 
-0.219365 -0.00939531 -0.198087 -0.21919 0.00449313 -0.198326 -0.222951 0.00873025 -0.199807 
-0.231673 0.0112329 -0.201044 -0.246064 0.047519 -0.199627 -0.248436 0.0494072 -0.200198 
-0.231715 -0.0397379 -0.196018 -0.227937 -0.0413743 -0.19459 -0.218543 -0.027773 -0.193946 
-0.213157 -0.00922928 -0.194656 -0.215833 -0.00514707 -0.195926 -0.211049 -0.00670638 -0.194886 
-0.209139 -0.0043462 -0.194164 -0.212863 0.00132899 -0.194591 -0.216671 0.00545713 -0.195923 
-0.213886 0.0144335 -0.194213 -0.21733 0.0148526 -0.196721 -0.218894 0.0191403 -0.196864 
-0.214185 0.0239344 -0.194173 -0.222211 0.0344949 -0.195029 -0.20941 -0.0242373 -0.190976 
-0.207822 -0.0111615 -0.193073 -0.207155 0.00599748 -0.193242 -0.204513 0.00684988 -0.191997 
-0.207287 0.00798113 -0.190939 -0.21044 0.0285456 -0.191535 -0.237772 0.0563857 -0.192162 
-0.205833 0.0219452 -0.190028 -0.203518 0.0255669 -0.18801 -0.206928 0.033852 -0.188912 
-0.21158 0.037217 -0.1894 -0.213639 0.0395779 -0.189926 -0.215782 -0.0510951 -0.186546 
-0.220753 0.0286561 -0.179421 -0.202992 0.0040914 -0.191386 -0.201684 0.00827569 -0.190824 
-0.202016 0.0161389 -0.181376 -0.200432 -0.00346208 -0.190457 -0.200285 -0.0148722 -0.188479 
-0.200034 0.0232904 -0.18836 -0.0698667 0.0358277 -0.12581 -0.0732584 0.0537018 -0.128123 
-0.0621952 0.038498 -0.127495 -0.0613845 0.0435711 -0.126364 -0.0505105 0.017281 -0.125437 
-0.194079 -0.00983143 -0.187501 -0.191809 0.00373261 -0.186851 -0.198016 0.0127633 -0.187755 
-0.194061 0.0122204 -0.187234 -0.0468262 -0.0126023 -0.125246 -0.19171 -0.020738 -0.183983 
-0.19793 -0.0180937 -0.183518 -0.193933 -0.0174693 -0.185443 -0.189661 -0.0171444 -0.184802 
-0.198641 -0.0131975 -0.18407 -0.190523 -0.0129438 -0.185658 -0.188143 -0.0110259 -0.184903 
-0.183639 -0.00388656 -0.183313 -0.186328 -0.00315716 -0.184476 -0.189278 0.00099795 -0.183771 
-0.196164 0.0207582 -0.186154 -0.19151 0.0261788 -0.184096 -0.192288 0.0291926 -0.183859 
-0.17934 -0.0257358 -0.179276 -0.179967 -0.0160755 -0.180928 -0.175423 -0.0149118 -0.179223 
-0.185627 -0.0135602 -0.182477 -0.181325 -0.0110384 -0.182073 -0.180799 -0.00652627 -0.180974 
-0.181212 -0.00226343 -0.182305 -0.179491 0.0032247 -0.180606 -0.175829 0.000656775 -0.180102 
-0.177256 0.0120666 -0.180144 -0.0582311 0.0265232 -0.126746 -0.185693 0.0314447 -0.180676 
-0.188347 0.0360393 -0.180729 -0.179571 -0.038904 -0.176244 -0.172058 -0.0256596 -0.176243 
-0.175509 -0.0225111 -0.178119 -0.180899 -0.0123105 -0.177888 -0.173907 -0.0121221 -0.178889 
-0.169366 -0.0130345 -0.176873 -0.171581 -0.00728956 -0.177139 -0.167947 -0.00384676 -0.17677 
-0.166493 -0.00645826 -0.176135 -0.16651 0.00353519 -0.176229 -0.165841 0.00666669 -0.175802 
-0.168125 0.00863149 -0.17658 -0.169201 0.0114372 -0.176799 -0.175568 0.0163004 -0.177979 
-0.179795 0.0267079 -0.17805 -0.173499 0.0263343 -0.176625 -0.186949 0.0338183 -0.179249 
-0.169155 -0.0221731 -0.175576 -0.165817 -0.0188336 -0.174778 -0.166321 -0.0148527 -0.174359 
-0.162085 -0.0089248 -0.174138 -0.188649 -0.00458896 -0.174861 -0.159252 -0.00222559 -0.173019 
-0.164484 0.000601935 -0.17426 -0.160706 0.00617504 -0.172635 -0.164301 0.0114365 -0.173677 
-0.160149 0.0117919 -0.173025 -0.164356 0.0164317 -0.173284 -0.163196 0.0263202 -0.172273 
-0.169862 -0.0410245 -0.171618 -0.167329 -0.0312201 -0.172141 -0.16147 -0.0276501 -0.171416 
-0.159136 -0.0222568 -0.171189 -0.160185 -0.0179239 -0.171402 -0.153485 -0.0114433 -0.169254 
-0.160331 -0.00833424 -0.17061 -0.163684 -0.00560406 -0.172577 -0.156498 -0.0055667 -0.171833 
-0.151807 -0.00292466 -0.170045 -0.154414 0.00248993 -0.169974 -0.154575 0.0111315 -0.170782 
-0.162225 0.0224758 -0.17151 -0.153586 0.0233725 -0.168929 -0.14495 -0.0207399 -0.165787 
-0.145896 -0.0166852 -0.166652 -0.148492 -0.012865 -0.167059 -0.142705 -0.0113659 -0.165756 
[...]
POINT_DATA 728
FIELD FieldData 7
id 1 728 int
275 32 27 2 108 99 7 1 22 
33 5 21 60 6 142 23 58 13 
36 28 11 41 38 10 57 92 8 
79 130 40 101 48 54 126 42 67 
4 63 46 14 44 59 53 49 29 
75 83 93 76 88 122 43 104 162 
20 62 45 15 50 134 72 100 87 
85 148 114 18 70 51 71 163 132 
181 69 116 17 177 61 192 158 154 
52 120 166 47 84 35 64 77 174 
37 81 147 39 74 109 94 12 96 
156 145 65 133 91 245 138 111 55 
73 25 95 118 98 82 233 146 112 
200 167 182 188 136 157 150 222 137 
176 103 86 125 110 175 187 196 244 
231 89 143 274 124 159 90 304 257 
66 80 139 203 186 78 234 227 270 
105 140 268 232 144 204 128 246 209 
281 127 113 198 327 171 224 170 228 
153 202 121 135 97 216 194 123 185 
141 178 215 161 165 191 117 102 243 
155 164 259 201 287 211 218 239 262 
277 238 265 230 290 129 119 152 252 
302 282 180 151 131 206 271 199 205 
219 260 220 309 278 183 300 342 210 
223 258 347 292 314 272 293 149 214 
288 461 449 459 436 509 208 236 279 
289 487 337 295 189 212 254 251 250 
284 172 190 318 184 299 286 221 249 
115 106 193 207 307 308 160 496 311 
325 320 312 315 317 169 225 217 168 
235 345 333 310 197 266 256 323 301 
107 313 229 346 372 379 240 305 269 
261 267 324 348 355 365 413 179 253 
297 344 247 285 280 322 242 213 373 
321 241 358 378 316 331 329 226 352 
370 255 381 237 303 328 338 248 374 
359 376 273 349 291 341 283 380 389 
264 173 392 332 319 350 405 403 391 
371 335 394 330 306 326 415 367 384 
354 334 411 294 336 393 296 386 276 
395 298 441 396 377 409 388 382 414 
400 339 362 369 404 406 425 432 424 
385 402 442 426 407 383 356 398 360 
351 343 428 375 412 357 429 397 446 
410 401 463 437 452 430 408 363 448 
387 364 399 340 390 419 480 417 418 
434 447 479 440 492 427 469 478 421 
464 460 457 368 472 450 423 465 453 
490 435 475 500 416 431 353 422 433 
476 458 482 439 438 513 445 366 443 
466 474 495 483 477 195 535 468 455 
361 504 514 498 470 420 444 525 507 
503 512 486 493 532 731 733 467 517 
494 524 528 566 481 491 537 533 737 
736 511 489 523 473 565 519 527 542 
506 559 502 471 558 499 544 484 541 
485 577 454 497 563 521 526 534 582 
548 554 543 501 522 520 488 539 505 
462 570 552 518 510 576 540 536 573 
572 596 568 588 580 529 555 545 508 
591 594 589 569 592 575 546 547 578 
516 579 556 586 581 567 531 551 571 
515 550 538 562 585 530 549 584 574 
590 560 593 451 595 583 564 561 263 
587 602 557 553 607 603 608 601 600 
604 597 599 605 456 606 619 609 621 
617 598 618 615 614 620 622 616 611 
613 610 612 628 623 630 634 632 625 
635 629 626 627 633 624 631 637 645 
641 639 638 647 644 642 648 636 643 
640 655 660 646 658 656 654 650 653 
659 651 649 652 657 661 672 663 667 
674 670 665 671 673 662 669 664 679 
666 668 682 680 685 687 683 676 686 
681 678 675 684 697 677 698 693 689 
695 688 694 691 699 710 696 705 692 
700 706 690 708 712 702 713 709 703 
701 711 707 704 716 717 722 725 720 
719 723 721 726 715 718 724 714 728 
738 730 732 727 735 734 739 729 
type 1 728 int
1 1 1 1 1 1 1 1 1 
1 1 1 1 1 1 1 1 1 
1 1 1 1 1 1 1 1 1 
1 1 1 1 1 1 1 1 1 
1 1 1 1 1 1 1 1 1 
1 1 1 1 1 1 1 1 1 
1 1 1 1 1 1 1 1 1 
1 1 1 1 1 1 1 1 1 
1 1 1 1 1 1 1 1 1 
1 1 1 1 1 1 1 1 1 
1 1 1 1 1 1 1 1 1 
1 1 1 1 1 1 1 1 1 
1 1 1 1 1 1 1 1 1 
1 1 1 1 1 1 1 1 1 
1 1 1 1 1 1 1 1 1 
1 1 1 1 1 1 1 1 1 
1 1 1 1 1 1 1 1 1 
1 1 1 1 1 1 1 1 1 
1 1 1 1 1 1 1 1 1 
1 1 1 1 1 1 1 1 1 
1 1 1 1 1 1 1 1 1 
1 1 1 1 1 1 1 1 1 
1 1 1 1 1 1 1 1 1 
1 1 1 1 1 1 1 1 1 
1 1 1 1 1 1 1 1 1 
1 1 1 1 1 1 1 1 1 
1 1 1 1 1 1 1 1 1 
1 1 1 1 1 1 1 1 1 
1 1 1 1 1 1 1 1 1 
1 1 1 1 1 1 1 1 1 
1 1 1 1 1 1 1 1 1 
1 1 1 1 1 1 1 1 1 
1 1 1 1 1 1 1 1 1 
1 1 1 1 1 1 1 1 1 
1 1 1 1 1 1 1 1 1 
1 1 1 1 1 1 1 1 1 
1 1 1 1 1 1 1 1 1 
1 1 1 1 1 1 1 1 1 
1 1 1 1 1 1 1 1 1 
1 1 1 1 1 1 1 1 1 
1 1 1 1 1 1 1 1 1 
1 1 1 1 1 1 1 1 1 
1 1 1 1 1 1 1 1 1 
1 1 1 1 1 1 1 1 1 
1 1 1 1 1 1 1 1 1 
1 1 1 1 1 1 1 1 1 
1 1 1 1 1 1 1 1 1 
1 1 1 1 1 1 1 1 1 
1 1 1 1 1 1 1 1 1 
1 1 1 1 1 1 1 1 1 
1 1 1 1 1 1 1 1 1 
1 1 1 1 1 1 1 1 1 
1 1 1 1 1 1 1 1 1 
1 1 1 1 1 1 1 1 1 
1 1 1 1 1 1 1 1 1 
1 1 1 1 1 1 1 1 1 
1 1 1 1 1 1 1 1 1 
1 1 1 1 1 1 1 1 1 
1 1 1 1 1 1 1 1 1 
1 1 1 1 1 1 1 1 1 
1 1 1 1 1 1 1 1 1 
1 1 1 1 1 1 1 1 1 
1 1 1 1 1 1 1 1 1 
1 1 1 1 1 1 1 1 1 
1 1 1 1 1 1 1 1 1 
1 1 1 1 1 1 1 1 1 
1 1 1 1 1 1 1 1 1 
1 1 1 1 1 1 1 1 1 
1 1 1 1 1 1 1 1 1 
1 1 1 1 1 1 1 1 1 
1 1 1 1 1 1 1 1 1 
1 1 1 1 1 1 1 1 1 
1 1 1 1 1 1 1 1 1 
1 1 1 1 1 1 1 1 1 
1 1 1 1 1 1 1 1 1 
1 1 1 1 1 1 1 1 1 
1 1 1 1 1 1 1 1 1 
1 1 1 1 1 1 1 1 1 
1 1 1 1 1 1 1 1 1 
1 1 1 1 1 1 1 1 1 
1 1 1 1 1 1 1 1 
i 3 728 int
0 0 0 0 0 0 0 0 0 
0 0 0 0 0 0 0 0 0 
0 0 0 0 0 0 0 0 0 
0 0 0 0 0 0 0 0 0 
0 0 0 0 0 0 0 0 0 
0 0 0 0 0 0 0 0 0 
0 0 0 0 0 0 0 0 0 
0 0 0 0 0 0 0 0 0 
0 0 0 0 0 0 0 0 0 
0 0 0 0 0 0 0 0 0 
0 0 0 0 0 0 0 0 0 
0 0 0 0 0 0 0 0 0 
0 0 0 0 0 0 0 0 0 
0 0 0 0 0 0 0 0 0 
0 0 0 0 0 0 0 0 0 
0 0 0 0 0 0 0 0 0 
0 0 0 0 0 0 0 0 0 
0 0 0 0 0 0 0 0 0 
0 0 0 0 0 0 0 0 0 
0 0 0 0 0 0 0 0 0 
0 0 0 0 0 0 0 0 0 
0 0 0 0 0 0 0 0 0 
0 0 0 0 0 0 0 0 0 
0 0 0 0 0 0 0 0 0 
0 0 0 0 0 0 0 0 0 
0 0 0 0 0 0 0 0 0 
0 0 0 0 0 0 0 0 0 
0 0 0 0 0 0 0 0 0 
0 0 0 0 0 0 0 0 0 
0 0 0 0 0 0 0 0 0 
0 0 0 0 0 0 0 0 0 
0 0 0 0 0 0 0 0 0 
0 0 0 0 0 0 0 0 0 
0 0 0 0 0 0 0 0 0 
0 0 0 0 0 0 0 0 0 
0 0 0 0 0 0 0 0 0 
0 0 0 0 0 0 0 0 0 
0 0 0 0 0 0 0 0 0 
0 0 0 0 0 0 0 0 0 
0 0 0 0 0 0 0 0 0 
0 0 0 0 0 0 0 0 0 
0 0 0 0 0 0 0 0 0 
0 0 0 0 0 0 0 0 0 
0 0 0 0 0 0 0 0 0 
0 0 0 0 0 0 0 0 0 
0 0 0 0 0 0 0 0 0 
0 0 0 0 0 0 0 0 0 
0 0 0 0 0 0 0 0 0 
0 0 0 0 0 0 0 0 0 
0 0 0 0 0 0 0 0 0 
0 0 0 0 0 0 0 0 0 
0 0 0 0 0 0 0 0 0 
0 0 0 0 0 0 0 0 0 
0 0 0 0 0 0 0 0 0 
0 0 0 0 0 0 0 0 0 
0 0 0 0 0 0 0 0 0 
0 0 0 0 0 0 0 0 0 
0 0 0 0 0 0 0 0 0 
0 0 0 0 0 0 0 0 0 
0 0 0 0 0 0 0 0 0 
0 0 0 0 0 0 0 0 0 
0 0 0 0 0 0 0 0 0 
0 0 0 0 0 0 0 0 0 
0 0 0 0 0 0 0 0 0 
0 0 0 0 0 0 0 0 0 
0 0 0 0 0 0 0 0 0 
0 0 0 0 0 0 0 0 0 
0 0 0 0 0 0 0 0 0 
0 0 0 0 0 0 0 0 0 
0 0 0 0 0 0 0 0 0 
0 0 0 0 0 0 0 0 0 
0 0 0 0 0 0 0 0 0 
0 0 0 0 0 0 0 0 0 
0 0 0 0 0 0 0 0 0 
0 0 0 0 0 0 0 0 0 
0 0 0 0 0 0 0 0 0 
0 0 0 0 0 0 0 0 0 
0 0 0 0 0 0 0 0 0 
0 0 0 0 0 0 0 0 0 
0 0 0 0 0 0 0 0 0 
0 0 0 0 0 0 0 0 0 
0 0 0 0 0 0 0 0 0 
0 0 0 0 0 0 0 0 0 
0 0 0 0 0 0 0 0 0 
0 0 0 0 0 0 0 0 0 
0 0 0 0 0 0 0 0 0 
0 0 0 0 0 0 0 0 0 
0 0 0 0 0 0 0 0 0 
0 0 0 0 0 0 0 0 0 
0 0 0 0 0 0 0 0 0 
0 0 0 0 0 0 0 0 0 
0 0 0 0 0 0 0 0 0 
0 0 0 0 0 0 0 0 0 
0 0 0 0 0 0 0 0 0 
0 0 0 0 0 0 0 0 0 
0 0 0 0 0 0 0 0 0 
0 0 0 0 0 0 0 0 0 
0 0 0 0 0 0 0 0 0 
0 0 0 0 0 0 0 0 0 
0 0 0 0 0 0 0 0 0 
0 0 0 0 0 0 0 0 0 
0 0 0 0 0 0 0 0 0 
0 0 0 0 0 0 0 0 0 
0 0 0 0 0 0 0 0 0 
0 0 0 0 0 0 0 0 0 
0 0 0 0 0 0 0 0 0 
0 0 0 0 0 0 0 0 0 
0 0 0 0 0 0 0 0 0 
0 0 0 0 0 0 0 0 0 
0 0 0 0 0 0 0 0 0 
0 0 0 0 0 0 0 0 0 
0 0 0 0 0 0 0 0 0 
0 0 0 0 0 0 0 0 0 
0 0 0 0 0 0 0 0 0 
0 0 0 0 0 0 0 0 0 
0 0 0 0 0 0 0 0 0 
0 0 0 0 0 0 0 0 0 
0 0 0 0 0 0 0 0 0 
0 0 0 0 0 0 0 0 0 
0 0 0 0 0 0 0 0 0 
0 0 0 0 0 0 0 0 0 
0 0 0 0 0 0 0 0 0 
0 0 0 0 0 0 0 0 0 
0 0 0 0 0 0 0 0 0 
0 0 0 0 0 0 0 0 0 
0 0 0 0 0 0 0 0 0 
0 0 0 0 0 0 0 0 0 
0 0 0 0 0 0 0 0 0 
0 0 0 0 0 0 0 0 0 
0 0 0 0 0 0 0 0 0 
0 0 0 0 0 0 0 0 0 
0 0 0 0 0 0 0 0 0 
0 0 0 0 0 0 0 0 0 
0 0 0 0 0 0 0 0 0 
0 0 0 0 0 0 0 0 0 
0 0 0 0 0 0 0 0 0 
0 0 0 0 0 0 0 0 0 
0 0 0 0 0 0 0 0 0 
0 0 0 0 0 0 0 0 0 
0 0 0 0 0 0 0 0 0 
0 0 0 0 0 0 0 0 0 
0 0 0 0 0 0 0 0 0 
0 0 0 0 0 0 0 0 0 
0 0 0 0 0 0 0 0 0 
0 0 0 0 0 0 0 0 0 
0 0 0 0 0 0 0 0 0 
0 0 0 0 0 0 0 0 0 
0 0 0 0 0 0 0 0 0 
0 0 0 0 0 0 0 0 0 
0 0 0 0 0 0 0 0 0 
0 0 0 0 0 0 0 0 0 
0 0 0 0 0 0 0 0 0 
0 0 0 0 0 0 0 0 0 
0 0 0 0 0 0 0 0 0 
0 0 0 0 0 0 0 0 0 
0 0 0 0 0 0 0 0 0 
0 0 0 0 0 0 0 0 0 
0 0 0 0 0 0 0 0 0 
0 0 0 0 0 0 0 0 0 
0 0 0 0 0 0 0 0 0 
0 0 0 0 0 0 0 0 0 
0 0 0 0 0 0 0 0 0 
0 0 0 0 0 0 0 0 0 
0 0 0 0 0 0 0 0 0 
0 0 0 0 0 0 0 0 0 
0 0 0 0 0 0 0 0 0 
0 0 0 0 0 0 0 0 0 
0 0 0 0 0 0 0 0 0 
0 0 0 0 0 0 0 0 0 
0 0 0 0 0 0 0 0 0 
0 0 0 0 0 0 0 0 0 
0 0 0 0 0 0 0 0 0 
0 0 0 0 0 0 0 0 0 
0 0 0 0 0 0 0 0 0 
0 0 0 0 0 0 0 0 0 
0 0 0 0 0 0 0 0 0 
0 0 0 0 0 0 0 0 0 
0 0 0 0 0 0 0 0 0 
0 0 0 0 0 0 0 0 0 
0 0 0 0 0 0 0 0 0 
0 0 0 0 0 0 0 0 0 
0 0 0 0 0 0 0 0 0 
0 0 0 0 0 0 0 0 0 
0 0 0 0 0 0 0 0 0 
0 0 0 0 0 0 0 0 0 
0 0 0 0 0 0 0 0 0 
0 0 0 0 0 0 0 0 0 
0 0 0 0 0 0 0 0 0 
0 0 0 0 0 0 0 0 0 
0 0 0 0 0 0 0 0 0 
0 0 0 0 0 0 0 0 0 
0 0 0 0 0 0 0 0 0 
0 0 0 0 0 0 0 0 0 
0 0 0 0 0 0 0 0 0 
0 0 0 0 0 0 0 0 0 
0 0 0 0 0 0 0 0 0 
0 0 0 0 0 0 0 0 0 
0 0 0 0 0 0 0 0 0 
0 0 0 0 0 0 0 0 0 
0 0 0 0 0 0 0 0 0 
0 0 0 0 0 0 0 0 0 
0 0 0 0 0 0 0 0 0 
0 0 0 0 0 0 0 0 0 
0 0 0 0 0 0 0 0 0 
0 0 0 0 0 0 0 0 0 
0 0 0 0 0 0 0 0 0 
0 0 0 0 0 0 0 0 0 
0 0 0 0 0 0 0 0 0 
0 0 0 0 0 0 0 0 0 
0 0 0 0 0 0 0 0 0 
0 0 0 0 0 0 0 0 0 
0 0 0 0 0 0 0 0 0 
0 0 0 0 0 0 0 0 0 
0 0 0 0 0 0 0 0 0 
0 0 0 0 0 0 0 0 0 
0 0 0 0 0 0 0 0 0 
0 0 0 0 0 0 0 0 0 
0 0 0 0 0 0 0 0 0 
0 0 0 0 0 0 0 0 0 
0 0 0 0 0 0 0 0 0 
0 0 0 0 0 0 0 0 0 
0 0 0 0 0 0 0 0 0 
0 0 0 0 0 0 0 0 0 
0 0 0 0 0 0 0 0 0 
0 0 0 0 0 0 0 0 0 
0 0 0 0 0 0 0 0 0 
0 0 0 0 0 0 0 0 0 
0 0 0 0 0 0 0 0 0 
0 0 0 0 0 0 0 0 0 
0 0 0 0 0 0 0 0 0 
0 0 0 0 0 0 0 0 0 
0 0 0 0 0 0 0 0 0 
0 0 0 0 0 0 0 0 0 
0 0 0 0 0 0 0 0 0 
0 0 0 0 0 0 0 0 0 
0 0 0 0 0 0 0 0 0 
0 0 0 0 0 0 0 0 0 
0 0 0 0 0 0 0 0 0 
0 0 0 0 0 0 0 0 0 
0 0 0 0 0 0 0 0 0 
0 0 0 0 0 0 0 0 0 
0 0 0 0 0 0 0 0 0 
0 0 0 0 0 0 
v 3 728 double
-0.941207 -0.0519861 -0.396656 -1.29371 0.154395 -1.79251 -1.37864 0.0410424 -1.83732 
-1.12274 0.0154003 -1.73483 -1.34684 0.255768 -1.76026 -1.29568 0.280331 -1.74022 
-1.28265 -0.0239591 -1.63184 -1.26435 0.0221371 -1.67358 -1.14007 0.0619945 -1.60531 
-1.18685 -0.0202596 -1.60637 -1.25753 0.0630385 -1.55309 -1.27086 -0.0159577 -1.57282 
-1.17479 0.0230187 -1.50079 -1.17123 0.0260053 -1.5142 -1.36559 -0.0590547 -1.75469 
-1.20375 0.00503665 -1.45277 -1.28551 0.102613 -1.53606 -1.21196 0.0390049 -1.41113 
-1.08435 0.0642844 -1.39687 -1.2302 0.00574051 -1.43543 -1.22067 0.0285474 -1.44084 
-1.24643 -0.117866 -1.42341 -1.0323 0.152826 -1.38068 -1.116 0.019221 -1.34089 
-1.22662 -0.116708 -1.35987 -1.34796 0.269572 -1.39972 -1.22068 -0.298572 -1.38771 
-1.10241 -0.0910185 -1.25716 -1.37075 -0.249623 -1.34827 -1.19979 -0.0555813 -1.28677 
-1.20344 -0.0768672 -1.25208 -1.19319 -0.0892842 -1.25939 -1.08092 -0.0613343 -1.16574 
-1.19839 0.239857 -1.39641 -1.07951 0.0100131 -1.12854 -1.27485 0.17461 -1.21306 
-1.31844 0.0999611 -1.16476 -0.973525 -0.054984 -1.0832 -1.1745 -0.054974 -1.09123 
-1.20031 -0.116061 -1.12521 -1.16531 -0.100774 -1.08593 -1.277 -0.273313 -1.15831 
-0.950694 -0.0282768 -1.06531 -1.21623 0.0824053 -1.02753 -1.16483 0.0470791 -1.01946 
-1.27791 -0.159827 -1.13464 -1.13593 0.0982091 -0.958425 -1.11646 -0.190801 -0.977959 
-1.22816 0.208558 -1.02721 -1.00125 -0.056749 -0.917176 -0.927985 -0.0893705 -0.903445 
-1.14832 -0.0493155 -0.972271 -1.24862 0.224029 -0.982731 -1.07355 0.0243757 -0.904962 
-1.15392 0.253472 -0.949996 -1.16496 0.313566 -0.951448 -1.0702 0.0723754 -0.865482 
-1.16235 0.0278991 -0.856979 -1.14927 0.0317068 -0.860862 -0.916792 0.00792413 -0.902317 
-1.0697 -0.178245 -0.874787 -1.06719 -0.01735 -0.692489 -1.08106 0.0368958 -0.816123 
-1.05461 -0.0269159 -0.782465 -1.12405 -0.115274 -0.835194 -1.25689 0.0342867 -0.92019 
-1.1263 -0.0230756 -0.770143 -1.15631 -0.04943 -0.720839 -1.13458 0.0303929 -0.735888 
-1.15352 0.0596096 -0.715264 -1.2255 0.338249 -0.879177 -1.08618 -0.129173 -0.620338 
-1.06918 0.00527484 -0.703226 -1.10517 0.0370108 -0.661928 -1.04079 0.00651297 -0.591658 
-1.13677 0.0257101 -0.60104 -1.21306 -0.0523629 -0.698868 -1.18328 0.102491 -0.56925 
-1.08167 -0.0200369 -0.503936 -1.08849 -0.0675976 -0.577271 -1.25934 -0.101095 -0.62128 
-1.08858 -0.00313056 -0.491085 -1.26482 0.214882 -0.544426 -1.05827 0.0730597 -0.483822 
-1.04712 0.0604206 -0.436957 -0.961548 0.0916634 -0.41074 -0.893761 0.0825838 -0.365401 
-1.09304 0.0583722 -0.479098 -1.07154 0.0765887 -0.446807 -1.15856 0.079826 -0.51744 
-1.17128 -0.0833829 -0.552743 -1.31752 0.207942 -0.604137 -1.03919 0.197265 -0.519972 
-1.09286 0.0703228 -0.501059 -0.934069 -0.0313299 -0.365256 -0.973134 0.0703171 -0.409781 
-0.90803 0.170188 -0.394928 -0.937781 0.215423 -0.458897 -1.0378 0.0846352 -0.441695 
-0.994536 -0.008049 -0.419489 -1.03788 -0.0614085 -0.441315 -1.05247 -0.0367227 -0.445348 
-1.02656 -0.0324286 -0.433837 -0.8936 -0.0386846 -0.376647 -1.08383 -0.051568 -0.248555 
-1.18479 -0.130154 -0.469963 -0.842454 0.0929256 -0.358575 -1.01747 -0.140983 -0.437716 
-0.992435 -0.0206786 -0.42015 -0.995841 -0.0301068 -0.427428 -1.01434 -0.0634149 -0.427465 
-1.00129 -0.0855801 -0.417159 -1.04281 -0.0109998 -0.449126 -1.02981 0.0698198 -0.416433 
-0.86059 -0.117256 -0.382045 -0.982189 0.119167 -0.316438 -0.895671 0.0147417 -0.401669 
-1.03843 0.064975 -0.443399 -0.991359 0.127795 -0.507271 -1.12677 0.0315084 -0.476017 
-0.971924 0.0842474 -0.370023 -0.956643 0.0766632 -0.229625 -1.21217 -0.0903841 -0.516614 
-1.0314 -0.0505426 -0.438247 -1.21347 -0.0979717 -0.520209 -1.1038 0.208989 -0.497061 
-0.87827 0.101399 -0.362722 -1.04708 0.0293396 -0.800524 -0.876523 0.0924297 -0.383578 
-0.919876 -0.0141091 -0.378385 -1.02521 -0.0452386 -0.406403 -0.942619 0.0262682 -0.433687 
-0.870004 0.186559 -0.396482 -1.041 0.170718 -0.445348 -1.12276 0.154054 -0.464325 
-1.20468 -0.00178307 -0.456152 -0.956374 0.129624 -0.292979 -0.993412 -0.0177255 -0.419825 
-1.1128 -0.0767084 -0.4734 -1.10697 -0.384764 -0.615953 -1.14727 0.0697956 -0.477323 
-0.991442 0.0357571 -0.414905 -1.4231 -0.13074 -1.14786 -0.907871 0.0928812 -0.377468 
-1.05853 -0.0896952 -0.435389 -1.12425 -0.0699198 -0.470807 -1.08595 -0.0991486 -0.459097 
-1.00651 -0.105393 -0.422048 -0.971832 0.0284112 -0.409396 -0.990769 0.00262198 -0.416401 
-0.923493 -0.0454901 -0.314972 -0.883466 0.0515909 -0.371262 -1.08769 0.00294689 -0.850338 
-1.09769 -0.0172883 -0.446627 -0.965031 -0.0841048 -0.430986 -1.18169 -0.0702154 -0.451672 
-0.993959 -0.0505859 -0.404384 -0.847595 -0.0888308 -0.341372 -0.904355 -0.0430452 -0.373153 
-0.966865 -0.0412358 -0.407949 -0.903091 0.0127028 -0.383706 -0.82052 0.0938683 -0.338882 
-1.15942 0.198165 -0.847723 -1.01359 -0.0468325 -0.426281 -0.998787 -0.205702 -0.456042 
-0.874511 0.0405259 -0.352802 -0.97903 0.0293627 -0.342292 -1.00758 -0.144599 -0.419519 
-0.860062 -0.0206367 -0.332375 -0.913895 0.075959 -0.34377 -0.95771 0.0503046 -0.40856 
-0.878972 -0.00970701 -0.37586 -0.922447 0.060422 -0.3829 -0.8632 0.0391589 -0.359767 
-0.920845 -0.0101765 -0.388819 -0.935789 -0.0120542 -0.389356 -1.15226 -0.31964 -0.573371 
-1.0334 -0.0223091 -0.407428 -0.873733 -0.0647892 -0.382444 -0.839914 -0.02659 -0.350365 
-0.86993 -0.0413902 -0.363811 -0.966251 -0.0106556 -0.420224 -0.931719 -0.042485 -0.397829 
-0.938603 -0.0809222 -0.399858 -0.995353 0.106857 -0.417121 -0.986925 -0.0101059 -0.417422 
-0.903523 -0.046996 -0.372156 -0.894437 -0.0947907 -0.364752 -0.710879 -0.024773 -0.30496 
-0.713974 -0.00518916 -0.304513 -0.899035 0.00965594 -0.370062 -0.808657 0.0295281 -0.348221 
-1.08087 -0.43227 -0.644857 -0.833763 0.11844 -0.365047 -0.883523 -0.0750617 -0.370055 
-0.87057 0.00275161 -0.36103 -0.69651 -0.0466782 -0.290651 -0.727206 -0.00993166 -0.30271 
-1.12391 0.0904697 -0.612283 -0.957069 -0.303673 -0.329601 -0.935449 -0.223781 -0.454092 
-0.971559 0.0908631 -0.417862 -0.939242 -0.0118557 -0.334561 -0.853328 0.131916 -0.376658 
-0.752717 -0.0251928 -0.267611 -0.931769 0.00608929 -0.386526 -0.863917 0.0478565 -0.362753 
-0.755089 -0.128791 -0.328794 -0.90664 -0.0473974 -0.413551 -0.723253 -7.60952e-05 -0.359927 
-0.9561 0.107497 -0.386898 -0.928699 -0.0236253 -0.402948 -0.90799 -0.00332094 -0.38875 
-0.777454 -0.0506077 -0.340202 -0.949618 -0.160473 -0.425133 -0.954489 -0.0298694 -0.404597 
-0.680929 -0.00785053 -0.289669 -0.866059 -0.0776985 -0.356046 -0.876982 -0.02067 -0.307591 
-0.847556 0.040942 -0.433907 -0.912041 0.0139636 -0.389409 -0.856548 -0.180743 -0.445903 
-0.939632 0.16724 -0.801882 -0.855685 0.0280111 -0.464108 -0.982973 -0.0930781 -0.421248 
-1.02013 0.0634866 -0.385942 -1.00221 0.0769971 -0.372179 -1.16229 0.0624631 -0.492118 
-1.05368 0.0855229 -0.45052 -0.898063 -0.0850995 -0.378668 -0.874962 0.198019 -0.359505 
-1.04962 -0.0645066 -0.522592 -0.806379 0.0264816 -0.345716 -0.783468 -0.054224 -0.322978 
-0.739575 0.0673986 -0.29923 -0.451768 0.289482 -0.564014 -0.562417 0.150297 -0.173701 
-0.625425 0.328717 -0.610508 -0.64521 0.237046 -0.203043 -0.665116 -0.0457956 -0.284046 
-0.766329 0.0417913 -0.331453 -0.740002 0.0996071 -0.308316 -0.769241 -0.0113441 -0.320982 
-0.746022 0.0771591 -0.312018 -0.392003 -0.0436093 -0.153273 -1.09603 -0.159683 -0.573344 
-0.927067 -0.181403 -0.489209 -0.76054 -0.0591859 -0.313703 -0.879948 -0.0104384 -0.362073 
-0.787741 0.0150431 -0.351705 -0.811436 0.0494327 -0.340909 -0.800161 0.0417243 -0.335337 
-0.667692 -0.0187687 -0.273769 -0.692096 -0.0195116 -0.296466 -0.774927 -0.0242091 -0.390752 
-0.781403 0.0218821 -0.326613 -0.837336 0.0240662 -0.350469 -0.943353 0.0303159 -0.382284 
-0.78383 -0.104225 -0.298387 -0.775299 -0.0114377 -0.319296 -0.80777 0.0169553 -0.328019 
-0.819563 0.00388367 -0.338846 -0.754969 -0.0143865 -0.350088 -0.82227 -0.0349797 -0.342169 
-0.710201 0.0484185 -0.298292 -0.653499 0.015443 -0.27385 -0.658196 -0.0448457 -0.290455 
-0.714911 -0.0123901 -0.304916 -0.891581 0.104796 -0.190211 -0.819457 -0.0381571 -0.342288 
-0.863982 -0.0287623 -0.332834 -0.859779 -0.106081 -0.30782 -0.734924 -0.0610052 -0.324277 
-0.723001 -0.00643904 -0.341226 -0.747762 -0.0201684 -0.299422 -0.806676 0.0195775 -0.346354 
-0.81491 0.0347353 -0.35108 -0.799642 0.00781577 -0.32914 -0.774451 0.00925156 -0.319085 
-0.787771 -0.0181176 -0.325977 -0.639346 0.06149 -0.276858 -0.693332 0.0276412 -0.28193 
-0.720935 0.00946017 -0.299043 -0.723637 0.00944904 -0.301245 -0.727755 0.0568896 -0.305603 
-0.867433 0.0247514 -0.356122 -0.804848 -0.111866 -0.354762 -0.803615 -0.131661 -0.45926 
-0.852362 0.365681 -0.400215 -0.759313 -0.00692493 -0.322876 -0.830882 -0.00560908 -0.344205 
-0.742727 0.0256984 -0.292 -1.18726 0.0556993 -0.55127 -0.667532 -0.0542033 -0.341793 
-0.718633 -0.0270275 -0.311049 -0.705502 -0.0584031 -0.305337 -0.690148 0.0091475 -0.282192 
-0.656709 0.00940646 -0.2689 -0.688277 0.00869042 -0.285248 -0.821782 -0.00161229 -0.335128 
-0.949366 -0.065677 -0.370046 -0.954106 0.0543019 -0.463011 -0.796105 -0.0792596 -0.32098 
-0.809435 -0.0527524 -0.31274 -0.762677 0.0340828 -0.325303 -0.691407 -0.0390848 -0.296835 
-1.06081 -0.221988 -0.483528 -1.004 0.122976 -0.686814 -0.678073 -0.0189327 -0.306836 
-0.631259 0.00962252 -0.25963 -0.80773 -0.135412 -0.333569 -0.643115 0.0705158 -0.266683 
-0.721884 0.00579605 -0.302146 -0.861757 -0.0799246 -0.363968 -0.68609 0.169323 -0.323328 
-0.70677 -0.0483062 -0.297094 -0.695678 -0.0394035 -0.293227 -0.546478 0.0388897 -0.208471 
-0.918934 -0.215522 -0.54243 -0.639102 -0.0312874 -0.264659 -0.62211 0.0046585 -0.260765 
-0.59821 -0.026807 -0.255452 -0.647973 0.0512269 -0.275273 -0.732183 0.0189675 -0.309613 
-0.828689 0.0681972 -0.330456 -0.768532 0.184909 -0.368607 -0.847425 -0.172072 -0.404511 
-0.72787 -0.100838 -0.257121 -0.8267 -0.00690571 -0.256211 -0.637365 -0.0695402 -0.257292 
-0.999839 -0.122135 -0.433815 -0.733563 -0.0957568 -0.301913 -0.638638 0.00202637 -0.299392 
-0.943709 -0.0583093 -0.435403 -0.829636 0.0181511 -0.291682 -0.582587 -0.0183841 -0.247517 
-0.428299 -0.0616289 -0.164894 -0.588342 -0.0366227 -0.241718 -0.874535 -0.0669522 -0.662391 
-0.811575 -0.146662 -0.488611 -0.794064 0.0811982 -0.319328 -0.797305 0.108728 -0.313394 
-0.78126 0.0825051 -0.309272 -0.672055 -0.0612527 -0.294943 -0.675884 0.0350195 -0.42114 
-0.771297 0.045584 -0.341714 -0.862058 -0.0500209 -0.354599 -0.807944 -0.0130226 -0.327534 
-0.803505 -0.0287589 -0.320418 -0.91469 -0.0530406 -0.365329 -0.804265 0.0537588 -0.392264 
-0.564912 -0.0184606 -0.24077 -0.668156 -0.0600451 -0.248358 -0.617356 0.0670332 -0.319777 
-0.779031 0.00340317 -0.242212 -0.784361 0.112596 -0.147439 -0.639884 0.137308 -0.269752 
-0.64185 -0.00615611 -0.243416 -0.875688 0.0745697 -0.61496 -0.75774 -0.0585792 -0.450685 
-0.793252 -0.129046 -0.413796 -0.678542 -0.0271041 -0.300932 -0.902166 -0.261568 -0.361907 