# vtk DataFile Version 4.0
Generated by LIGGGHTS
ASCII
DATASET POLYDATA
POINTS 454 float
-0.296767 0.0137007 -0.230417 -0.271966 -0.0020878 -0.220739 -0.250119 -0.00124518 -0.210502 
-0.243136 -0.0232875 -0.206383 -0.24133 -0.0130483 -0.20694 -0.249051 -0.0416239 -0.203507 
-0.243395 0.038328 -0.20253 -0.233417 -0.0307762 -0.198006 -0.226339 -0.010476 -0.199863 
-0.220029 -0.00921401 -0.198379 -0.231484 0.0386245 -0.196413 -0.209682 -0.0104257 -0.193953 
-0.330839 0.0760545 -0.193395 -0.215925 0.0142915 -0.187544 -0.232025 0.0640369 -0.185744 
-0.209171 -0.0169339 -0.193048 -0.209245 0.00475239 -0.194136 -0.209847 -0.00575185 -0.192725 
-0.208603 0.0184347 -0.190777 -0.20818 0.0138594 -0.185457 -0.205191 -0.0110131 -0.191996 
-0.206047 -0.00300797 -0.192781 -0.206445 -0.0584542 -0.179166 -0.203559 -0.000834589 -0.190338 
-0.201609 -0.00578081 -0.190957 -0.200986 0.00666558 -0.18961 -0.0620674 0.0312349 -0.128279 
-0.0768161 -0.010985 -0.130886 -0.073636 0.0124284 -0.130074 -0.0761796 0.00535095 -0.133814 
-0.0531773 0.000985567 -0.12628 -0.0538938 -0.0173386 -0.126788 -0.0635684 -0.0129273 -0.126154 
-0.199174 0.0110039 -0.1895 -0.061437 0.00995384 -0.129025 -0.192564 -0.00371856 -0.187115 
-0.197576 -0.00195823 -0.187834 -0.0484786 0.00781063 -0.126195 -0.0483453 0.0112027 -0.126 
-0.199533 0.0166976 -0.188245 -0.187558 0.00197663 -0.183994 -0.183546 0.0120556 -0.18171 
-0.19244 0.0171111 -0.184991 -0.184829 0.0173985 -0.182851 -0.0637723 -0.00547887 -0.129159 
-0.181913 -0.00862743 -0.181899 -0.173872 0.00541343 -0.179273 -0.175661 0.0121351 -0.178373 
-0.17947 0.0228071 -0.179808 -0.186435 0.0267546 -0.18084 -0.195039 -0.0554402 -0.176184 
-0.187213 -0.0432371 -0.1779 -0.167127 -0.00304518 -0.175364 -0.166484 0.00153337 -0.176209 
-0.16888 0.00420323 -0.176756 -0.16376 0.0041075 -0.175039 -0.169773 0.0168733 -0.175507 
-0.164991 -0.0310012 -0.172208 -0.157714 -0.00933799 -0.171187 -0.159067 -0.00513633 -0.173059 
-0.161999 0.00163523 -0.173747 -0.157995 0.000681534 -0.172548 -0.163709 0.0108141 -0.174462 
-0.157632 0.0127452 -0.171911 -0.162064 0.0160032 -0.173447 -0.164779 0.035035 -0.171298 
-0.179924 0.050193 -0.17263 -0.167085 -0.0410769 -0.169394 -0.15442 -0.0182742 -0.16893 
-0.154204 -0.0118453 -0.168438 -0.148832 -0.00487973 -0.168736 -0.149293 0.00367845 -0.168896 
-0.158547 0.0277071 -0.170116 -0.182493 -0.062528 -0.163935 -0.1533 -0.0345131 -0.165413 
-0.150876 -0.00773632 -0.168225 -0.141974 -0.00879341 -0.165682 -0.143036 -0.00543779 -0.163654 
-0.139325 -0.00565375 -0.164556 -0.136615 -0.00664224 -0.163498 -0.152654 -0.000375374 -0.16713 
-0.145533 -0.00290088 -0.166348 -0.141764 -0.00167513 -0.165856 -0.139073 0.000378506 -0.163617 
-0.158388 0.0139829 -0.16787 -0.164052 0.0534236 -0.164896 -0.156971 -0.0526298 -0.162433 
-0.148584 -0.0418698 -0.16158 -0.145722 -0.0383433 -0.162499 -0.131623 -0.017181 -0.160647 
-0.132146 -0.0118405 -0.160241 -0.132573 -0.0075751 -0.161728 -0.130211 -0.00565695 -0.160567 
-0.149945 -0.00140756 -0.16309 -0.145611 -0.00152152 -0.162405 -0.143896 -0.00251712 -0.160073 
-0.135245 -0.00239149 -0.161875 -0.165918 0.000752827 -0.162518 -0.134407 0.0016466 -0.162719 
-0.137348 0.00671106 -0.162655 -0.133012 0.00674991 -0.16192 -0.14972 0.040507 -0.163425 
-0.154064 0.0412698 -0.163825 -0.14255 -0.0398965 -0.159673 -0.130033 -0.0194555 -0.159633 
-0.123182 -0.0204084 -0.156633 -0.122699 -0.0170864 -0.156894 -0.141244 -0.00544146 -0.160137 
-0.155654 0.00278835 -0.158682 -0.142002 0.000416009 -0.160285 -0.135696 0.00691104 -0.158099 
-0.130743 0.0142095 -0.159466 -0.126221 0.0142875 -0.158583 -0.124189 0.0201767 -0.157079 
-0.11895 -0.014559 -0.15554 -0.121918 -0.00960129 -0.156046 -0.111497 -0.00697152 -0.152909 
-0.117601 -0.00692295 -0.155495 -0.137607 0.00379995 -0.157815 -0.130068 0.00214053 -0.157227 
-0.114345 0.00801624 -0.153959 -0.136602 0.0135607 -0.154213 -0.118939 0.0144615 -0.155513 
-0.113952 0.013753 -0.153534 -0.116423 0.0161797 -0.154326 -0.127667 -0.0558974 -0.149288 
-0.110611 -0.0191103 -0.15044 -0.105991 -0.00624625 -0.149545 -0.11448 -0.00328226 -0.154025 
-0.172879 -0.000306865 -0.149867 -0.113768 0.00164065 -0.152824 -0.101699 0.00356218 -0.148653 
-0.122045 0.00715888 -0.155916 -0.104523 0.00369416 -0.150037 -0.11924 0.00665253 -0.151878 
-0.108342 0.006949 -0.15051 -0.116262 0.021117 -0.152524 -0.106642 0.024241 -0.149123 
-0.128932 -0.0651124 -0.145728 -0.107493 -0.0425724 -0.14553 -0.106764 -0.0335232 -0.147511 
-0.116216 -0.019537 -0.152536 -0.104577 -0.018746 -0.149037 -0.099959 -0.00508959 -0.147059 
-0.0950661 -0.0052112 -0.145197 -0.0993387 0.000660499 -0.146509 -0.106259 0.00469005 -0.146718 
-0.096442 0.00643064 -0.145546 -0.105869 0.00970807 -0.148575 -0.111863 0.0151273 -0.15051 
-0.103161 0.0267263 -0.146183 -0.089096 -0.0195878 -0.141324 -0.0893006 -0.0070656 -0.142871 
-0.0853539 -0.0031622 -0.142042 -0.0877841 0.00245483 -0.14191 -0.0921293 0.0118769 -0.143322 
-0.0963783 0.0182797 -0.145688 -0.0923358 0.0246505 -0.143081 -0.0968448 0.0360574 -0.142819 
-0.11382 0.05831 -0.142802 -0.105658 -0.053475 -0.141459 -0.114605 -0.0492468 -0.144678 
-0.0882269 -0.0290097 -0.138527 -0.0858015 -0.0102437 -0.140521 -0.0984963 -0.00866015 -0.143099 
-0.108497 -0.00312341 -0.142717 -0.0817575 -0.000478898 -0.140171 -0.0968495 0.00265107 -0.142297 
-0.0805926 0.00461551 -0.139924 -0.0872956 0.00771571 -0.141638 -0.0806147 0.00934226 -0.138706 
-0.100882 0.0125241 -0.143539 -0.0909709 0.012453 -0.139524 -0.140176 0.0174955 -0.138887 
-0.109178 0.0172381 -0.141366 -0.0933821 0.0380355 -0.140809 -0.109159 -0.0114726 -0.13998 
-0.0784351 -0.00268018 -0.138048 -0.0732252 -0.00170304 -0.135733 -0.10018 -0.000120722 -0.140729 
-0.0926525 -0.00163116 -0.140539 -0.0732416 0.00985761 -0.135573 -0.0712464 0.014453 -0.1354 
-0.0751086 0.0176425 -0.135663 -0.0801733 -0.0349409 -0.13552 -0.075845 -0.0297902 -0.134059 
-0.0662841 -0.0257803 -0.132087 -0.0636257 -0.0162092 -0.132107 -0.0707387 -0.0125209 -0.134323 
-0.0670798 -0.00919001 -0.134025 -0.0860726 -0.000978193 -0.135835 -0.0594666 -0.00484939 -0.129928 
-0.0976564 0.00014724 -0.138571 -0.0648574 0.000704714 -0.132976 -0.0711577 0.00243597 -0.135674 
-0.0661552 0.00407619 -0.133615 -0.0605762 0.00379663 -0.131474 -0.101815 0.00411643 -0.138369 
-0.0672835 0.00684314 -0.134116 -0.0634543 0.00670969 -0.130639 -0.0724608 0.0300601 -0.132986 
-0.0725203 0.0263397 -0.133988 -0.0686732 -0.0456408 -0.128672 -0.0652621 -0.0197489 -0.131285 
-0.0614711 -0.0181566 -0.129197 -0.0886932 -0.0134976 -0.135468 -0.0624621 -0.0125917 -0.130889 
-0.0527787 -0.0135645 -0.127808 -0.0554192 -0.00796003 -0.129139 -0.0528717 -0.00923841 -0.127438 
-0.0777284 -0.00400529 -0.129878 -0.0595576 0.000203142 -0.130026 -0.0553668 -0.000532796 -0.129312 
-0.0992538 0.00362457 -0.133509 -0.0567764 0.00318398 -0.129841 -0.0586551 0.0062884 -0.130212 
-0.0547462 0.00442286 -0.127856 -0.0930328 0.00931834 -0.129699 -0.0738424 0.0537442 -0.12704 
-0.0589549 -0.00812449 -0.126434 -0.0486267 -0.00662633 -0.125324 -0.0654245 0.00898467 -0.125354 
-0.0258137 0.00190826 0.0508103 -0.042185 -0.0156395 -0.123122 -0.0139184 0.0334821 0.045801 
-0.0468935 -0.0102419 -0.124394 -0.0290561 -0.00430439 0.0458521 -0.00101568 -0.00765357 0.0463035 
-0.00105657 0.0183981 0.0410573 -0.0616109 -0.00201916 -0.125004 -0.0558438 -0.00390182 -0.121578 
-0.0120116 -0.010599 0.0453671 -0.0432237 0.00577474 -0.124081 -0.0217046 0.022596 0.0483243 
-0.0312886 -0.013967 0.0473884 -0.0456725 0.0102893 -0.123136 -0.0297716 0.0219768 0.0498503 
-0.00392958 0.028377 0.0496741 -0.0428501 -0.026991 -0.121013 -0.0198718 -0.0194218 0.044813 
-0.0349599 -0.00687491 -0.120548 -0.0405718 -0.00556085 -0.119807 -0.049157 -0.00240437 -0.121825 
-0.0367965 -0.0024089 -0.120327 -0.0490582 0.00233921 -0.120696 -0.0413684 0.00293024 -0.121973 
-0.0725733 0.0106691 -0.122618 -0.0820397 0.0113337 -0.124638 -0.0181237 -0.00251957 0.0444271 
-0.0432358 0.0146535 -0.122341 -0.0527295 0.0251038 -0.122715 -0.046251 0.0252535 -0.122623 
-0.0425463 -0.0234563 -0.114432 -0.0321054 -0.0238361 -0.116606 -0.0645372 -0.013238 -0.11651 
-0.039682 -0.0148549 -0.11781 -0.0443689 -0.00371939 -0.121729 -0.0722178 -0.00208314 -0.123499 
-0.0693568 0.00149823 -0.123932 -0.0508788 0.0062465 -0.119375 -0.0379958 0.013277 -0.120212 
-0.0317754 0.0185286 -0.117308 -0.0427991 0.0199646 -0.121817 -0.0300702 0.0227354 -0.116321 
-0.07048 0.0741279 -0.118471 -0.0423107 -0.0620417 -0.112507 -0.0445708 -0.0404587 -0.113372 
-0.0377433 -0.0170464 -0.118884 -0.0579782 -0.0142109 -0.114651 -0.0445434 -0.012822 -0.112114 
-0.0269433 -0.0149414 -0.110995 -0.0594036 -0.00617399 -0.113251 -0.0425392 -0.011539 -0.11628 
-0.0154462 -0.010224 -0.111961 -0.0421099 -0.00661289 -0.115177 -0.056633 -0.00264227 -0.112346 
-0.0278462 -0.00371098 -0.115192 -0.0385993 0.000607572 -0.112588 -0.0298189 0.001352 -0.111195 
-0.0415056 0.00817677 -0.111116 -0.0334058 0.00268805 -0.112419 -0.0783882 0.00908432 -0.112156 
-0.0694322 0.0104448 -0.118119 -0.0248029 0.00856317 -0.116245 -0.0328321 0.0235395 -0.112262 
-0.0304687 0.0256657 -0.116701 -0.0317383 0.0307589 -0.116844 -0.0223235 0.0308743 -0.112894 
-0.0321531 -0.0326074 -0.112661 -0.0306302 -0.0280457 -0.108627 -0.0193478 -0.0254658 -0.109248 
-0.0350207 -0.0159815 -0.110846 -0.0365277 -0.013183 -0.10683 -0.0399491 -0.00744858 -0.10975 
-0.0194953 -0.0144221 -0.108929 -0.036313 -0.00615801 -0.112044 -0.0315839 -0.00346757 -0.118735 
-0.0775599 0.00212701 -0.109501 -0.0557067 0.00283098 -0.111694 -0.0605444 0.0103587 -0.113749 
-0.0785524 0.0182169 -0.111447 -0.028887 0.0178637 -0.110482 -0.0222759 0.0169104 -0.109005 
-0.0434401 0.0280384 -0.110023 -0.032156 0.02789 -0.113565 -0.0123157 -0.0375634 -0.106846 
-0.0219004 -0.0200464 -0.105507 -0.012756 -0.0108072 -0.107488 -0.0472843 -0.00443566 -0.107642 
-0.0280034 -0.00867865 -0.109269 -0.0276505 0.00462325 -0.115641 -0.0129404 0.00781056 -0.10784 
-0.0133713 0.0062623 -0.103855 -0.0332833 0.00698428 -0.107364 -0.0533624 0.00933692 -0.109105 
-0.0255181 0.0193491 -0.105238 -0.0257962 0.0278972 -0.104513 -0.0223005 -0.031468 -0.10962 
-0.024269 -0.0104782 -0.0981199 -0.00770869 -0.0049486 -0.107944 0.0139335 0.012565 -0.0997193 
-0.0195152 0.0287186 -0.102215 -0.0167332 0.0254699 -0.101492 -0.00830628 -0.0203111 -0.104084 
-0.0142612 0.000558013 -0.109227 -0.0258219 -0.0202264 -0.114825 -0.0243584 -0.000620819 -0.11375 
-0.0204765 0.00703928 -0.114539 -0.0296682 0.0254582 -0.108949 -0.0346461 0.030431 -0.116009 
-0.00609073 0.000572649 -0.107893 -0.0318921 -0.0270149 -0.106291 -0.0259008 0.01415 -0.108888 
-0.0289018 0.0215238 -0.105838 -0.0120559 -0.0171326 -0.103417 -0.0107355 -0.0111371 -0.103419 
-0.0208274 -0.00751444 -0.0995364 -0.0344795 0.0306845 -0.100527 -0.00974267 0.00154746 -0.0959835 
-0.0224693 0.00786627 -0.0968106 -0.026015 0.0234799 -0.0967068 -0.0310028 0.00427373 -0.0942579 
-0.00482279 0.0319284 -0.0913145 -0.0292124 -0.00857811 -0.0882899 -0.0282123 0.0119421 -0.0898603 
-0.00304149 0.01634 -0.089543 -0.0145727 0.0196597 -0.0893711 -0.0258414 -0.0246135 -0.0845943 
-0.0120659 -0.000928847 -0.0867558 -0.00423369 0.00513081 -0.0868868 -0.000558622 -0.0225112 -0.0831636 
-0.0230867 -0.0218823 -0.0787658 -0.00209585 -0.0253397 -0.0746952 -0.0250933 5.52728e-05 -0.0757534 
-0.0131172 0.0174599 -0.0732501 -0.0054599 -0.0346412 -0.069401 -0.0318304 -0.0245036 -0.0696554 
-0.00205387 -0.0284209 -0.0678933 -0.00797106 -0.0174946 -0.0653302 -0.00209743 -0.0197497 -0.0614525 
-0.00426265 -0.00806252 -0.0644488 -0.0153561 0.00561382 -0.0641589 -0.029449 0.0175582 -0.0637876 
-0.0135917 0.0274385 -0.0613844 -0.032644 -0.0063197 -0.0593351 -0.00532413 0.00347482 -0.057531 
-0.00315638 0.017114 -0.0555122 -0.0215522 -0.0188967 -0.0513562 -0.0196875 0.000933277 -0.0535081 
-0.00977287 0.0109784 -0.0523878 -0.0243451 0.0195956 -0.0525274 -0.0168696 0.0180085 -0.0501814 
-0.0135751 0.0240704 -0.0507496 -0.0164984 0.0336061 -0.0510021 -0.00832892 -0.0172649 -0.0469266 
-0.0162721 0.0114791 -0.0430785 -0.0184795 -0.0269407 -0.0403098 -0.00858455 -0.00884288 -0.0425104 
-0.00390427 -0.00527178 -0.0411912 -0.0310592 -0.00121585 -0.0408405 -0.00937081 0.0258081 -0.0389928 
-0.00665099 -0.0147089 -0.035192 -0.0206177 -0.0113305 -0.0350924 -0.0123384 -0.0119647 -0.0350649 
-0.00639582 0.00662071 -0.0362923 -0.00657095 -0.0222035 -0.0339169 -0.0213451 -0.000776551 -0.0313288 
-0.0104872 0.0175218 -0.034388 -0.0079193 0.0298979 -0.0318323 -0.029518 -0.0259191 -0.0305602 
-0.0235714 -0.0119867 -0.0274154 -0.0220216 -0.0115727 -0.0211835 -0.0173855 -0.0338902 -0.0173611 
-0.00676706 -0.00981008 -0.0172594 -0.0321609 -0.00607507 -0.0196943 -0.0299907 0.00855733 -0.019881 
-0.00131466 0.00705789 -0.01726 -0.0077538 0.0171361 -0.0186033 -0.00221027 0.0186146 -0.0184905 
-0.0183398 -0.0212097 -0.0127898 -0.0311671 0.0123986 -0.0160996 -0.0107659 0.0283687 -0.0159339 
-0.0223604 0.0276055 -0.0117178 -0.00517262 0.0323307 -0.0110491 -0.0287336 -0.0143436 -0.00544134 
-0.0138788 -0.0162448 -0.00625475 -0.00452227 -8.57609e-05 -0.00546333 -0.0232248 0.018953 -0.00518787 
-0.0208051 -0.0257611 -0.00139545 -0.00399213 -0.0264375 -0.00488689 -0.0318082 0.0208697 -0.00317782 
-0.00341211 0.0279138 -0.00191904 -0.00154371 -0.0346722 0.00182914 -0.0239192 -0.011198 0.00081297 
-0.00558275 -0.00455966 0.00074906 -0.0345917 -0.0281976 0.0052283 -0.0293509 -0.0255557 0.00399029 
-0.0193685 0.0119819 0.00274138 -0.0191536 0.0271245 0.00558295 -0.0319573 -0.0211048 0.00880065 
-0.0067008 0.0110709 0.0101812 -0.00861311 0.0156758 0.00802607 -0.0124901 0.0292455 0.00762016 
-0.0184641 0.0346143 0.00771985 -0.0255212 -0.0322233 0.0136513 -0.0216218 -0.0306886 0.0119931 
-0.0188515 -0.0248569 0.0104283 -0.0215899 -0.0111508 0.0125264 -0.00801538 0.0199359 0.0150871 
-0.0291051 0.026364 0.0161885 -0.00957752 -0.023935 0.021519 -0.0143365 -0.0079604 0.0191472 
-0.00353272 0.0202053 0.0192836 -0.0136772 0.0221297 0.019592 -0.0109636 -0.0311008 0.0237207 
-0.0194255 -0.0262921 0.0237754 -0.0129094 -0.0188123 0.0231081 -0.0267273 0.0202325 0.0230839 
-0.00135906 -0.0285348 0.0255867 -0.0293542 -0.0154504 0.0281084 -0.0144604 0.0146238 0.0270256 
-0.0147423 -0.00564426 0.0309181 -0.00986991 0.00120138 0.0297602 -0.0102718 0.00457908 0.0319978 
-0.0165007 0.0290903 0.0316734 -0.0298384 -0.0303038 0.0348498 -0.011677 -0.0284877 0.0348866 
-0.0312961 0.0169384 0.0333392 -0.00247583 0.0215485 0.0356648 -0.000325902 -0.0296171 0.0381198 
-0.00025791 -0.0162541 0.0379435 -0.00282712 0.00545747 0.0388866 -0.00180751 0.0338204 0.0389013 
-0.00462244 -0.00933596 0.0423158 
VERTICES 454 908
1 0 
1 1 
1 2 
1 3 
1 4 
1 5 
1 6 
1 7 
1 8 
1 9 
1 10 
1 11 
1 12 
1 13 
1 14 
1 15 
1 16 
1 17 
1 18 
1 19 
1 20 
1 21 
1 22 
1 23 
1 24 
1 25 
1 26 
1 27 
1 28 
1 29 
1 30 
1 31 
1 32 
1 33 
1 34 
1 35 
1 36 
1 37 
1 38 
1 39 
1 40 
1 41 
1 42 
1 43 
1 44 
1 45 
1 46 
1 47 
1 48 
1 49 
1 50 
1 51 
1 52 
1 53 
1 54 
1 55 
1 56 
1 57 
1 58 
1 59 
1 60 
1 61 
1 62 
1 63 
1 64 
1 65 
1 66 
1 67 
1 68 
1 69 
1 70 
1 71 
1 72 
1 73 
1 74 
1 75 
1 76 
1 77 
1 78 
1 79 
1 80 
1 81 
1 82 
1 83 
1 84 
1 85 
1 86 
1 87 
1 88 
1 89 
1 90 
1 91 
1 92 
1 93 
1 94 
1 95 
1 96 
1 97 
1 98 
1 99 
1 100 
1 101 
1 102 
1 103 
1 104 
1 105 
1 106 
1 107 
1 108 
1 109 
1 110 
1 111 
1 112 
1 113 
1 114 
1 115 
1 116 
1 117 
1 118 
1 119 
1 120 
1 121 
1 122 
1 123 
1 124 
1 125 
1 126 
1 127 
1 128 
1 129 
1 130 
1 131 
1 132 
1 133 
1 134 
1 135 
1 136 
1 137 
1 138 
1 139 
1 140 
1 141 
1 142 
1 143 
1 144 
1 145 
1 146 
1 147 
1 148 
1 149 
1 150 
1 151 
1 152 
1 153 
1 154 
1 155 
1 156 
1 157 
1 158 
1 159 
1 160 
1 161 
1 162 
1 163 
1 164 
1 165 
1 166 
1 167 
1 168 
1 169 
1 170 
1 171 
1 172 
1 173 
1 174 
1 175 
1 176 
1 177 
1 178 
1 179 
1 180 
1 181 
1 182 
1 183 
1 184 
1 185 
1 186 
1 187 
1 188 
1 189 
1 190 
1 191 
1 192 
1 193 
1 194 
1 195 
1 196 
1 197 
1 198 
1 199 
1 200 
1 201 
1 202 
1 203 
1 204 
1 205 
1 206 
1 207 
1 208 
1 209 
1 210 
1 211 
1 212 
1 213 
1 214 
1 215 
1 216 
1 217 
1 218 
1 219 
1 220 
1 221 
1 222 
1 223 
1 224 
1 225 
1 226 
1 227 
1 228 
1 229 
1 230 
1 231 
1 232 
1 233 
1 234 
1 235 
1 236 
1 237 
1 238 
1 239 
1 240 
1 241 
1 242 
1 243 
1 244 
1 245 
1 246 
1 247 
1 248 
1 249 
1 250 
1 251 
1 252 
1 253 
1 254 
1 255 
1 256 
1 257 
1 258 
1 259 
1 260 
1 261 
1 262 
1 263 
1 264 
1 265 
1 266 
1 267 
1 268 
1 269 
1 270 
1 271 
1 272 
1 273 
1 274 
1 275 
1 276 
1 277 
1 278 
1 279 
1 280 
1 281 
1 282 
1 283 
1 284 
1 285 
1 286 
1 287 
1 288 
1 289 
1 290 
1 291 
1 292 
1 293 
1 294 
1 295 
1 296 
1 297 
1 298 
1 299 
1 300 
1 301 
1 302 
1 303 
1 304 
1 305 
1 306 
1 307 
1 308 
1 309 
1 310 
1 311 
1 312 
1 313 
1 314 
1 315 
1 316 
1 317 
1 318 
1 319 
1 320 
1 321 
1 322 
1 323 
1 324 
1 325 
1 326 
1 327 
1 328 
1 329 
1 330 
1 331 
1 332 
1 333 
1 334 
1 335 
1 336 
1 337 
1 338 
1 339 
1 340 
1 341 
1 342 
1 343 
1 344 
1 345 
1 346 
1 347 
1 348 
1 349 
1 350 
1 351 
1 352 
1 353 
1 354 
1 355 
1 356 
1 357 
1 358 
1 359 
1 360 
1 361 
1 362 
1 363 
1 364 
1 365 
1 366 
1 367 
1 368 
1 369 
1 370 
1 371 
1 372 
1 373 
1 374 
1 375 
1 376 
1 377 
1 378 
1 379 
1 380 
1 381 
1 382 
1 383 
1 384 
1 385 
1 386 
1 387 
1 388 
1 389 
1 390 
1 391 
1 392 
1 393 
1 394 
1 395 
1 396 
1 397 
1 398 
1 399 
1 400 
1 401 
1 402 
1 403 
1 404 
1 405 
1 406 
1 407 
1 408 
1 409 
1 410 
1 411 
1 412 
1 413 
1 414 
1 415 
1 416 
1 417 
1 418 
1 419 
1 420 
1 421 
1 422 
1 423 
1 424 
1 425 
1 426 
1 427 
1 428 
1 429 
1 430 
1 431 
1 432 
1 433 
1 434 
1 435 
1 436 
1 437 
1 438 
1 439 
1 440 
1 441 
1 442 
1 443 
1 444 
1 445 
1 446 
1 447 
1 448 
1 449 
1 450 
1 451 
1 452 
1 453 

POINT_DATA 454
FIELD FieldData 7
id 1 454 int
56 9 16 30 19 34 31 2 3 
32 26 6 24 38 68 33 22 60 
1 27 10 7 108 36 23 5 215 
202 271 257 190 205 224 21 260 13 
79 223 184 11 54 40 28 57 211 
88 42 101 48 41 99 58 29 45 
46 87 14 83 15 50 49 18 72 
85 43 44 8 92 4 52 69 70 
93 126 67 84 12 125 96 112 51 
17 35 64 122 59 20 76 62 61 
39 47 174 116 100 109 166 63 156 
65 73 75 130 104 147 74 94 162 
142 133 55 114 71 37 111 103 25 
158 132 134 150 148 82 118 95 163 
167 89 136 53 77 97 177 121 145 
90 154 98 81 110 120 176 175 78 
144 128 187 105 143 140 66 165 135 
123 141 80 138 157 113 124 86 137 
129 204 196 182 170 153 155 127 164 
146 161 91 139 183 192 117 152 181 
185 102 131 178 245 230 171 252 191 
149 188 193 186 208 206 172 207 200 
180 214 199 274 119 228 218 159 189 
212 169 221 227 115 106 198 160 220 
197 233 216 219 168 243 445 225 443 
217 446 451 439 258 239 453 226 449 
450 266 448 444 179 447 248 235 281 
229 247 240 265 209 452 269 238 151 
300 237 268 287 285 203 194 254 241 
242 256 213 201 107 255 315 270 275 
314 262 251 272 253 259 277 302 293 
284 290 244 232 273 294 261 210 173 
309 295 313 289 279 278 312 249 308 
231 236 234 222 267 298 282 299 195 
292 296 250 286 311 264 301 288 246 
297 280 310 276 306 263 283 291 303 
304 307 305 321 324 327 326 328 322 
319 317 318 320 325 334 316 323 335 
332 333 340 330 329 337 331 339 336 
338 344 345 352 346 347 350 351 343 
349 341 342 353 348 366 363 365 357 
358 354 356 362 359 364 361 355 360 
376 371 375 373 379 367 377 368 372 
369 378 374 370 389 391 383 380 387 
386 390 388 381 384 385 392 382 394 
397 402 398 403 400 395 401 396 404 
399 413 405 393 417 409 407 412 410 
411 406 418 415 408 416 414 424 430 
429 419 422 426 428 425 420 423 421 
442 427 437 436 432 434 441 435 440 
433 438 431 454 
type 1 454 int
1 1 1 1 1 1 1 1 1 
1 1 1 1 1 1 1 1 1 
1 1 1 1 1 1 1 1 1 
1 1 1 1 1 1 1 1 1 
1 1 1 1 1 1 1 1 1 
1 1 1 1 1 1 1 1 1 
1 1 1 1 1 1 1 1 1 
1 1 1 1 1 1 1 1 1 
1 1 1 1 1 1 1 1 1 
1 1 1 1 1 1 1 1 1 
1 1 1 1 1 1 1 1 1 
1 1 1 1 1 1 1 1 1 
1 1 1 1 1 1 1 1 1 
1 1 1 1 1 1 1 1 1 
1 1 1 1 1 1 1 1 1 
1 1 1 1 1 1 1 1 1 
1 1 1 1 1 1 1 1 1 
1 1 1 1 1 1 1 1 1 
1 1 1 1 1 1 1 1 1 
1 1 1 1 1 1 1 1 1 
1 1 1 1 1 1 1 1 1 
1 1 1 1 1 1 1 1 1 
1 1 1 1 1 1 1 1 1 
1 1 1 1 1 1 1 1 1 
1 1 1 1 1 1 1 1 1 
1 1 1 1 1 1 1 1 1 
1 1 1 1 1 1 1 1 1 
1 1 1 1 1 1 1 1 1 
1 1 1 1 1 1 1 1 1 
1 1 1 1 1 1 1 1 1 
1 1 1 1 1 1 1 1 1 
1 1 1 1 1 1 1 1 1 
1 1 1 1 1 1 1 1 1 
1 1 1 1 1 1 1 1 1 
1 1 1 1 1 1 1 1 1 
1 1 1 1 1 1 1 1 1 
1 1 1 1 1 1 1 1 1 
1 1 1 1 1 1 1 1 1 
1 1 1 1 1 1 1 1 1 
1 1 1 1 1 1 1 1 1 
1 1 1 1 1 1 1 1 1 
1 1 1 1 1 1 1 1 1 
1 1 1 1 1 1 1 1 1 
1 1 1 1 1 1 1 1 1 
1 1 1 1 1 1 1 1 1 
1 1 1 1 1 1 1 1 1 
1 1 1 1 1 1 1 1 1 
1 1 1 1 1 1 1 1 1 
1 1 1 1 1 1 1 1 1 
1 1 1 1 1 1 1 1 1 
1 1 1 1 
i 3 454 int
0 0 0 0 0 0 0 0 0 
0 0 0 0 0 0 0 0 0 
0 0 0 0 0 0 0 0 0 
0 0 0 0 0 0 0 0 0 
0 0 0 0 0 0 0 0 0 
0 0 0 0 0 0 0 0 0 
0 0 0 0 0 0 0 0 0 
0 0 0 0 0 0 0 0 0 
0 0 0 0 0 0 0 0 0 
0 0 0 0 0 0 0 0 0 
0 0 0 0 0 0 0 0 0 
0 0 0 0 0 0 0 0 0 
0 0 0 0 0 0 0 0 0 
0 0 0 0 0 0 0 0 0 
0 0 0 0 0 0 0 0 0 
0 0 0 0 0 0 0 0 0 
0 0 0 0 0 0 0 0 0 
0 0 0 0 0 0 0 0 0 
0 0 0 0 0 0 0 0 0 
0 0 0 0 0 0 0 0 0 
0 0 0 0 0 0 0 0 0 
0 0 0 0 0 0 0 0 0 
0 0 0 0 0 0 0 0 0 
0 0 0 0 0 0 0 0 0 
0 0 0 0 0 0 0 0 0 
0 0 0 0 0 0 0 0 0 
0 0 0 0 0 0 0 0 0 
0 0 0 0 0 0 0 0 0 
0 0 0 0 0 0 0 0 0 
0 0 0 0 0 0 0 0 0 
0 0 0 0 0 0 0 0 0 
0 0 0 0 0 0 0 0 0 
0 0 0 0 0 0 0 0 0 
0 0 0 0 0 0 0 0 0 
0 0 0 0 0 0 0 0 0 
0 0 0 0 0 0 0 0 0 
0 0 0 0 0 0 0 0 0 
0 0 0 0 0 0 0 0 0 
0 0 0 0 0 0 0 0 0 
0 0 0 0 0 0 0 0 0 
0 0 0 0 0 0 0 0 0 
0 0 0 0 0 0 0 0 0 
0 0 0 0 0 0 0 0 0 
0 0 0 0 0 0 0 0 0 
0 0 0 0 0 0 0 0 0 
0 0 0 0 0 0 0 0 0 
0 0 0 0 0 0 0 0 0 
0 0 0 0 0 0 0 0 0 
0 0 0 0 0 0 0 0 0 
0 0 0 0 0 0 0 0 0 
0 0 0 0 0 0 0 0 0 
0 0 0 0 0 0 0 0 0 
0 0 0 0 0 0 0 0 0 
0 0 0 0 0 0 0 0 0 
0 0 0 0 0 0 0 0 0 
0 0 0 0 0 0 0 0 0 
0 0 0 0 0 0 0 0 0 
0 0 0 0 0 0 0 0 0 
0 0 0 0 0 0 0 0 0 
0 0 0 0 0 0 0 0 0 
0 0 0 0 0 0 0 0 0 
0 0 0 0 0 0 0 0 0 
0 0 0 0 0 0 0 0 0 
0 0 0 0 0 0 0 0 0 
0 0 0 0 0 0 0 0 0 
0 0 0 0 0 0 0 0 0 
0 0 0 0 0 0 0 0 0 
0 0 0 0 0 0 0 0 0 
0 0 0 0 0 0 0 0 0 
0 0 0 0 0 0 0 0 0 
0 0 0 0 0 0 0 0 0 
0 0 0 0 0 0 0 0 0 
0 0 0 0 0 0 0 0 0 
0 0 0 0 0 0 0 0 0 
0 0 0 0 0 0 0 0 0 
0 0 0 0 0 0 0 0 0 
0 0 0 0 0 0 0 0 0 
0 0 0 0 0 0 0 0 0 
0 0 0 0 0 0 0 0 0 
0 0 0 0 0 0 0 0 0 
0 0 0 0 0 0 0 0 0 
0 0 0 0 0 0 0 0 0 
0 0 0 0 0 0 0 0 0 
0 0 0 0 0 0 0 0 0 
0 0 0 0 0 0 0 0 0 
0 0 0 0 0 0 0 0 0 
0 0 0 0 0 0 0 0 0 
0 0 0 0 0 0 0 0 0 
0 0 0 0 0 0 0 0 0 
0 0 0 0 0 0 0 0 0 
0 0 0 0 0 0 0 0 0 
0 0 0 0 0 0 0 0 0 
0 0 0 0 0 0 0 0 0 
0 0 0 0 0 0 0 0 0 
0 0 0 0 0 0 0 0 0 
0 0 0 0 0 0 0 0 0 
0 0 0 0 0 0 0 0 0 
0 0 0 0 0 0 0 0 0 
0 0 0 0 0 0 0 0 0 
0 0 0 0 0 0 0 0 0 
0 0 0 0 0 0 0 0 0 
0 0 0 0 0 0 0 0 0 
0 0 0 0 0 0 0 0 0 
0 0 0 0 0 0 0 0 0 
0 0 0 0 0 0 0 0 0 
0 0 0 0 0 0 0 0 0 
0 0 0 0 0 0 0 0 0 
0 0 0 0 0 0 0 0 0 
0 0 0 0 0 0 0 0 0 
0 0 0 0 0 0 0 0 0 
0 0 0 0 0 0 0 0 0 
0 0 0 0 0 0 0 0 0 
0 0 0 0 0 0 0 0 0 
0 0 0 0 0 0 0 0 0 
0 0 0 0 0 0 0 0 0 
0 0 0 0 0 0 0 0 0 
0 0 0 0 0 0 0 0 0 
0 0 0 0 0 0 0 0 0 
0 0 0 0 0 0 0 0 0 
0 0 0 0 0 0 0 0 0 
0 0 0 0 0 0 0 0 0 
0 0 0 0 0 0 0 0 0 
0 0 0 0 0 0 0 0 0 
0 0 0 0 0 0 0 0 0 
0 0 0 0 0 0 0 0 0 
0 0 0 0 0 0 0 0 0 
0 0 0 0 0 0 0 0 0 
0 0 0 0 0 0 0 0 0 
0 0 0 0 0 0 0 0 0 
0 0 0 0 0 0 0 0 0 
0 0 0 0 0 0 0 0 0 
0 0 0 0 0 0 0 0 0 
0 0 0 0 0 0 0 0 0 
0 0 0 0 0 0 0 0 0 
0 0 0 0 0 0 0 0 0 
0 0 0 0 0 0 0 0 0 
0 0 0 0 0 0 0 0 0 
0 0 0 0 0 0 0 0 0 
0 0 0 0 0 0 0 0 0 
0 0 0 0 0 0 0 0 0 
0 0 0 0 0 0 0 0 0 
0 0 0 0 0 0 0 0 0 
0 0 0 0 0 0 0 0 0 
0 0 0 0 0 0 0 0 0 
0 0 0 0 0 0 0 0 0 
0 0 0 0 0 0 0 0 0 
0 0 0 0 0 0 0 0 0 
0 0 0 0 0 0 0 0 0 
0 0 0 0 0 0 0 0 0 
0 0 0 0 0 0 0 0 0 
0 0 0 0 0 0 0 0 0 
0 0 0 
v 3 454 double
-1.52411 -0.171068 -0.655645 -1.34179 -0.132011 -0.558702 -1.23588 -0.00123487 -0.524424 
-1.16206 0.0790628 -0.471543 -1.15238 -0.00312233 -0.560059 -1.2978 -0.132569 -0.407033 
-1.20694 0.0821735 -0.458422 -0.949195 -0.144305 -0.345316 -1.15116 0.188837 -0.506906 
-1.07913 0.147902 -0.460694 -1.17628 0.0985833 -0.453561 -0.875898 0.0669338 -0.388351 
-1.20582 -0.267663 -0.363333 -1.18523 0.291004 -0.522129 -1.19572 -0.05016 -0.474317 
-0.939533 -0.136431 -0.397005 -1.01749 0.0497733 -0.422827 -1.06129 0.0756559 -0.534668 
-1.01696 0.080407 -0.421722 -1.11832 -0.107013 -0.339341 -0.811931 -0.0680843 -0.328217 
-0.980931 -0.0644458 -0.438375 -1.16098 -0.0348832 -0.457592 -1.20271 -0.085448 -0.857911 
-0.879852 -0.0104522 -0.377168 -1.05155 0.0746193 -0.43401 -0.688865 -0.0299723 -0.284808 
-0.737562 0.057558 -0.743897 -1.09746 0.110945 -0.51938 -1.0082 -0.40069 -0.670589 
-0.479297 0.0354887 -0.225774 -0.517702 0.0331441 -0.222256 -0.744531 0.256881 -0.708743 
-1.00574 0.0817625 -0.408493 -0.781434 -0.26033 -0.502993 -0.907724 0.0315393 -0.37922 
-0.970414 -0.19154 -0.311743 -0.575795 0.0233286 -0.246794 -0.544055 0.0214991 -0.154572 
-0.883048 0.176158 -0.41867 -0.765111 0.0589609 -0.324831 -0.868374 -0.0493674 -0.368025 
-0.986772 0.135232 -0.4099 -0.906975 -0.0398125 -0.382034 -0.749875 0.213626 -0.707739 
-0.792869 -0.0651619 -0.265906 -0.846379 -0.00873641 -0.360486 -0.885914 -0.0145397 -0.377263 
-0.881711 0.120444 -0.345181 -0.950788 0.0457231 -0.390909 -1.09668 0.0322407 -0.435842 
-1.10269 -0.194566 -0.399872 -0.798942 -0.0212431 -0.325785 -0.791458 0.0140702 -0.347267 
-0.822012 0.00444925 -0.348123 -0.748673 0.00857916 -0.322985 -0.815919 -0.0114263 -0.341411 
-1.03336 -0.322949 -0.392601 -0.744214 -0.0486721 -0.316514 -0.718847 -0.0262962 -0.295879 
-0.835913 -0.116068 -0.311014 -0.774634 0.0336192 -0.318331 -0.923189 0.189314 -0.325365 
-0.719874 0.0742985 -0.290407 -0.83614 0.0716553 -0.336724 -0.863354 -0.125205 -0.38137 
-0.932576 -0.0402737 -0.389016 -0.996928 0.0955093 -0.484131 -0.949034 -0.0434388 -0.38672 
-0.669064 -0.12727 -0.438884 -0.68223 -0.0617606 -0.31584 -0.609942 0.0651434 -0.262694 
-0.901636 -0.102381 -0.391539 -1.07766 -0.276287 -0.262824 -0.944959 -0.0699197 -0.37829 
-0.70585 -0.0644416 -0.62487 -0.664998 -0.0979202 -0.271306 -0.755703 -0.175033 -0.156996 
-0.664807 -0.166882 -0.291729 -0.757612 -0.118314 -0.326604 -0.706411 0.0308964 -0.503249 
-0.657319 -0.0386108 -0.282503 -0.663106 -0.0773907 -0.273142 -0.711414 -0.0219793 -0.278427 
-0.967222 0.0163124 -0.774884 -0.869339 0.0436095 -0.328586 -0.854054 0.158206 -0.420347 
-0.916347 -0.0501843 -0.344068 -0.842077 -0.0398985 -0.319183 -0.66936 -0.134277 -0.374598 
-0.806801 -0.0983284 -0.337917 -0.69053 -0.0432017 -0.259937 -0.752445 0.051046 -0.294978 
-0.916438 -0.122804 -0.406386 -1.03611 -0.0278131 -0.17893 -0.922348 -0.0810399 -0.243529 
-0.75088 -0.0591856 -0.312085 -0.88379 0.00919005 -0.542964 -0.675338 -0.0321133 -0.278632 
-0.615997 0.0174046 -0.252309 -0.602282 0.0338942 -0.259508 -0.961374 0.185851 -0.323081 
-1.04973 -0.0281226 -0.431776 -0.893245 -0.0698953 -0.360777 -0.893045 -0.00725029 -0.251144 
-0.792687 -0.0485843 -0.327158 -0.764055 -0.0292914 -0.317748 -1.24085 -0.00328124 -0.394287 
-0.962735 -0.0182138 -0.566636 -1.01701 0.0290908 -0.533236 -0.563309 0.181141 -0.41859 
-0.896659 0.197643 -0.380693 -0.837116 0.0873953 -0.370893 -0.841945 -0.0459838 -0.34603 
-0.62173 -0.0440957 -0.257754 -0.782733 -0.0937843 -0.322313 -0.748591 0.061971 -0.320795 
-0.780482 -0.00427083 -0.330038 -1.04147 0.0266304 -0.708738 -1.18607 -0.0532701 -0.610198 
-0.729449 0.0664838 -0.303669 -1.13829 0.114939 -0.427695 -0.697595 0.0444077 -0.291768 
-0.636235 -0.024558 -0.355861 -0.709987 -0.0202829 -0.301651 -0.875389 -0.188806 -0.261234 
-0.89391 0.10853 -0.39141 -0.630519 -0.0374528 -0.265093 -0.768199 0.00700461 -0.647718 
-0.789769 -0.0534328 -0.413491 -0.838813 -0.0251545 -0.294472 -0.486692 0.0261109 -0.0744442 
-0.967848 0.24268 -0.262426 -0.496089 -0.0479595 -0.399121 -0.96655 -0.0370762 -0.549022 
-0.581087 -0.100617 -0.250703 -0.752623 -0.00646049 -0.315073 -0.696302 0.0690025 -0.282132 
-0.791602 -0.206906 -0.220754 -0.607774 0.00126609 -0.251075 -0.761492 -0.0837895 -0.297151 
-0.832266 -0.179886 -0.875595 -0.850665 0.0197132 -0.362607 -0.600192 0.0175935 -0.255611 
-0.505022 0.107 -0.237154 -0.651422 0.0390262 -0.228991 -0.585143 -0.0158345 -0.288436 
-0.561459 0.0655682 -0.254726 -0.618722 -0.0224241 -0.346853 -0.836217 0.177551 -0.376951 
-0.546617 -0.0233727 -0.233416 -0.474163 -0.326956 -0.156193 -0.528165 0.140606 -0.214711 
-0.598755 0.038515 -0.25061 -0.407021 0.104182 -0.169446 -0.552456 0.118497 -0.221075 
-0.818959 -0.12987 -0.357606 -0.722646 -0.111985 -0.314898 -0.486884 0.0534441 -0.187728 
-0.726229 0.248309 -0.17822 -0.672917 -0.0342515 -0.263107 -0.718017 -0.258545 -0.809836 
-0.385225 0.0430167 -0.150193 -0.714636 0.206474 -0.366361 -0.874506 -0.348042 -0.792563 
-0.720465 -0.294153 -0.745273 -0.522547 0.0976475 -0.1987 -0.62689 0.133539 -0.202716 
-0.586127 -0.0702735 -0.250047 -0.608261 -0.0646069 -0.259486 -0.530595 -0.061947 -0.227208 
-0.836593 0.150206 -0.617852 -0.56724 0.12207 -0.229889 -0.785109 0.0914827 -0.192912 
-0.883537 0.300809 -0.330999 -0.5986 0.287224 -0.114526 -0.89999 0.0184928 -0.717338 
-0.639211 0.0564246 -0.266399 -0.506371 -0.045461 -0.194703 -0.804275 -0.267764 -0.525206 
-0.720821 -0.261927 -0.81274 -0.602857 -0.055892 -0.257075 -0.455931 -0.026388 -0.195836 
-0.514303 0.00200863 -0.218069 -0.874086 -0.0248975 -0.410522 -0.795036 -0.0644636 -0.415773 
-0.634061 0.0196336 -0.268548 -0.529945 0.00285635 -0.212976 -0.625202 0.148926 -0.269674 
-0.705468 0.11121 -0.301623 -0.721806 0.26499 -0.780078 -0.293731 0.0668568 -0.128914 
-0.747568 0.139546 -0.748524 -0.632431 -0.226422 -0.211136 -0.455913 0.189724 -0.459199 
-0.603076 -0.157198 -0.298106 -0.546473 -0.0563631 -0.217954 -0.720911 -0.321481 -0.696999 
-0.477639 -0.0912426 -0.208405 -0.561913 -0.146274 -0.231669 -0.480711 0.244091 -0.449005 
-1.03764 -0.0415252 -0.506054 -0.505485 0.0146958 -0.213239 -0.679773 0.0103545 -0.282588 
-0.742814 0.222019 -0.423993 -0.588376 -0.269288 -0.828299 -0.646382 0.161034 -0.379481 
-0.426566 0.0245629 -0.180275 -0.399478 0.0157593 -0.179395 -0.426464 -0.120767 -0.10927 
-0.823508 0.045392 -0.433426 -0.406389 -0.0130646 -0.152971 -0.411986 -0.0261534 -0.299079 
-0.758237 0.0215414 -0.602598 -0.457415 0.0973746 -0.190616 -0.535335 0.0607362 -0.394092 
-0.412294 0.122565 -0.205969 -0.988333 0.0898184 -0.435457 -0.697185 0.242746 -0.267892 