# vtk DataFile Version 4.0
Generated by LIGGGHTS
ASCII
DATASET POLYDATA
POINTS 366 float
-0.227457 0.0763617 -0.174242 -0.177322 0.00776323 -0.180539 -0.187811 0.0240145 -0.183075 
-0.162894 -0.0256737 -0.172379 -0.163354 -0.00144641 -0.173763 -0.157912 -0.024194 -0.170692 
-0.148129 -0.00567901 -0.168392 -0.158567 0.0270691 -0.170246 -0.144346 -0.018245 -0.165825 
-0.148706 -0.00949993 -0.168425 -0.141699 -0.0048341 -0.165737 -0.145847 -0.0230432 -0.164668 
-0.147882 -0.00892437 -0.164563 -0.138434 -0.00741095 -0.163661 -0.138884 -0.0027574 -0.164591 
-0.137273 -0.000229441 -0.16397 -0.134008 -0.00176014 -0.161552 -0.137007 0.0143734 -0.162028 
-0.148575 0.0261867 -0.165246 -0.130919 -0.00596722 -0.161137 -0.128579 -0.000474181 -0.159206 
-0.129185 0.00477915 -0.160358 -0.156043 -0.0149556 -0.155253 -0.126987 -0.00560911 -0.158362 
-0.124518 0.00520672 -0.157334 -0.116696 0.00535792 -0.155198 -0.119262 0.0108936 -0.154618 
-0.123344 0.0145791 -0.156249 -0.122889 0.0185162 -0.156784 -0.146523 0.0598096 -0.155135 
-0.114102 -0.00165333 -0.153044 -0.110556 -0.00345775 -0.152633 -0.109837 0.000203842 -0.152026 
-0.136431 0.00308411 -0.151889 -0.127192 0.0043896 -0.150664 -0.113644 0.00528063 -0.152248 
-0.124298 0.00844453 -0.150617 -0.114802 0.00776013 -0.153986 -0.111807 0.0105349 -0.151558 
-0.114549 0.0153682 -0.152577 -0.119971 0.0208166 -0.154119 -0.123539 -0.0492222 -0.150041 
-0.108865 -0.0235937 -0.149608 -0.108343 -0.00577947 -0.150237 -0.104086 -0.00385791 -0.149162 
-0.12771 0.000204514 -0.151501 -0.112626 -0.00200215 -0.149309 -0.106262 -0.00203719 -0.150784 
-0.102517 0.00010265 -0.148113 -0.112857 0.00375403 -0.146773 -0.100653 0.00439856 -0.148422 
-0.104319 0.011612 -0.14956 -0.11736 -0.0510645 -0.146914 -0.101077 -0.00475752 -0.146218 
-0.0970633 -0.000488274 -0.146945 -0.10828 0.0030953 -0.147145 -0.090055 0.00269708 -0.143942 
-0.0948559 0.00285282 -0.144835 -0.0948343 0.00894963 -0.144693 -0.114352 0.0133201 -0.148086 
-0.106138 0.0401385 -0.145674 -0.115492 0.0481258 -0.147156 -0.0884176 -0.0253879 -0.140305 
-0.0896188 -0.0132633 -0.14222 -0.0864645 0.00172516 -0.14134 -0.0942563 0.00494587 -0.141255 
-0.0891895 0.0115852 -0.143201 -0.0840094 0.0111536 -0.140614 -0.103758 0.0439194 -0.143327 
-0.0970666 -0.0439196 -0.139513 -0.0870674 -0.033886 -0.138125 -0.0797962 -0.0059572 -0.139562 
-0.0917672 -0.00339547 -0.141534 -0.0880275 0.00293853 -0.137671 -0.0848789 0.0127432 -0.137311 
-0.0978634 -0.0585792 -0.136221 -0.0813443 -0.0303916 -0.136458 -0.0813062 -0.0214293 -0.134768 
-0.0693917 -0.0201288 -0.134068 -0.0722163 -0.0119375 -0.136054 -0.0823305 -0.00428003 -0.136932 
-0.0789053 -0.00480698 -0.134723 -0.0967023 -0.00051628 -0.137017 -0.0740102 -0.00236167 -0.136187 
-0.10212 0.000937018 -0.135668 -0.0693712 0.00611049 -0.135153 -0.072426 0.0142742 -0.135916 
-0.0966488 0.0316704 -0.137789 -0.0752238 -0.0426047 -0.132225 -0.0679097 -0.0378483 -0.130479 
-0.0656525 -0.0277434 -0.131513 -0.0617307 -0.0106742 -0.131708 -0.0847806 -0.00594572 -0.133364 
-0.0705743 -0.00286472 -0.132114 -0.063944 -0.00456185 -0.131136 -0.0799764 0.00109964 -0.132719 
-0.0631443 0.00136827 -0.132619 -0.0597363 0.0015423 -0.130991 -0.0640919 0.00589573 -0.132687 
-0.0691123 0.00922308 -0.131435 -0.0666099 0.0166116 -0.131339 -0.0661574 0.0209955 -0.132434 
-0.062901 0.0210018 -0.129734 -0.0692256 0.0261285 -0.132089 -0.0661006 0.0286466 -0.131262 
-0.065185 0.033085 -0.130123 -0.0560521 -0.0237155 -0.12689 -0.0531296 -0.0118635 -0.127906 
-0.0578663 -0.00731799 -0.129142 -0.0616605 -0.000804648 -0.1278 -0.055329 -0.00248631 -0.128218 
-0.0827181 0.0019144 -0.130903 -0.054107 0.00238841 -0.127713 -0.0678371 0.00473182 -0.130247 
-0.0631171 0.0153287 -0.128588 -0.0588588 0.0144547 -0.12711 -0.0862586 0.00025171 -0.126096 
-0.0819057 0.0141792 -0.127255 -0.0468193 -0.00481248 -0.12566 -0.0856023 0.0191156 -0.126527 
-0.0815967 0.0380248 -0.126229 -0.0826839 -0.0095671 -0.125979 -0.0892141 0.012297 -0.125922 
-0.0484575 0.00766164 -0.125097 -0.0611392 -0.0460273 -0.12453 -0.102895 -0.0328579 -0.124014 
-0.0469709 -0.0181209 -0.124426 -0.0168696 0.0180085 0.0523924 -0.0515098 -0.0117899 -0.124129 
-0.0721426 -0.0100594 -0.12422 -0.0804451 -0.00516225 -0.124497 -0.0563953 -0.00434137 -0.124683 
-0.00858455 -0.00884288 0.0569066 -0.0184795 -0.0269407 0.0582211 -0.0534349 -0.00101286 -0.123267 
-0.00977287 0.0109784 0.0511183 -0.0243451 0.0195956 0.0510375 -0.046405 0.0122223 -0.123094 
-0.0164984 0.0336061 0.0519194 -0.0162721 0.0114791 0.0565696 -0.0618167 0.0156277 -0.123668 
-0.0135751 0.0240704 0.052063 -0.0643579 -0.0337769 -0.122172 -0.0495916 -0.0258201 -0.120508 
-0.0641389 -0.0159275 -0.119805 -0.0541742 -0.0147933 -0.120716 -0.0368047 -0.0147077 -0.119558 
-0.0412448 -0.00958553 -0.119908 -0.0337919 -0.0103559 -0.119866 -0.0370956 -0.00780224 -0.120322 
-0.046707 -0.00595164 -0.121817 -0.0646544 0.000346883 -0.12073 -0.0607031 0.00207333 -0.119904 
-0.0773219 0.00518909 -0.119282 -0.0724149 0.00346673 -0.120396 -0.0333329 0.0087921 -0.118662 
-0.0350132 0.0130146 -0.120243 -0.0401914 0.0144459 -0.121311 -0.0415021 0.0263123 -0.119388 
-0.0440755 0.0295262 -0.122194 -0.0368848 -0.0421234 -0.11657 -0.0366427 -0.0258516 -0.117623 
-0.0335605 -0.0154596 -0.115153 -0.0455887 -0.0119686 -0.118533 -0.0328546 -0.0125815 -0.11764 
-0.0691259 -0.00474385 -0.118074 -0.027328 -0.000573729 -0.117109 -0.0416278 0.00198743 -0.116043 
-0.0304576 0.00147834 -0.118041 -0.0228587 0.00278759 -0.114096 -0.0381175 0.00616845 -0.118744 
-0.0508518 0.0118989 -0.117445 -0.0440127 0.0152991 -0.11937 -0.0378984 0.016467 -0.115982 
-0.0537419 0.0192322 -0.114408 -0.0297762 0.0256011 -0.116289 -0.060036 -0.0295974 -0.111462 
-0.0296327 -0.0284588 -0.114234 -0.0525232 -0.0222834 -0.114158 -0.0300908 -0.0222998 -0.113486 
-0.0400695 -0.0138983 -0.112628 -0.0523171 -0.00939539 -0.111475 -0.049659 -0.0121991 -0.114854 
-0.0181831 -0.0131626 -0.113086 -0.0603885 -0.0080116 -0.114688 -0.0530398 -0.00581377 -0.114347 
-0.0572004 -0.00181593 -0.113105 -0.0240935 -0.0014951 -0.113884 -0.0303883 0.00426025 -0.112399 
-0.0249369 0.0114949 -0.112432 -0.046875 0.012937 -0.114514 -0.0213549 0.0144653 -0.111854 
-0.0320338 0.017791 -0.111195 -0.0453493 0.0239867 -0.110962 -0.0470259 0.028549 -0.113728 
-0.0201461 -0.0232879 -0.109423 -0.0243346 -0.0190987 -0.110717 -0.027638 -0.0165881 -0.110444 
-0.0408412 -0.0104583 -0.110015 -0.0138368 -0.012722 -0.107657 -0.0119923 -0.0116489 -0.110246 
-0.0321643 -0.010278 -0.109825 -0.0500405 -0.00586665 -0.109623 -0.0319938 -0.00381907 -0.111085 
-0.0151034 -0.0062046 -0.111025 -0.0507835 -0.00197842 -0.110103 -0.0173967 0.0167471 -0.111944 
-0.0154754 0.0138713 -0.110008 -0.0170723 0.0254594 -0.109169 -0.0214993 0.0287965 -0.107962 
-0.0175605 0.0292899 -0.107209 -0.0215264 -0.0536507 -0.107132 -0.0178055 -0.0307437 -0.106249 
-0.00972386 -0.0237373 -0.105264 -0.0312153 -0.0211174 -0.104881 -0.0211746 -0.0168845 -0.106439 
-0.0120716 -0.00766599 -0.11108 -0.0164561 0.0110351 -0.104143 -0.03787 0.0182753 -0.107102 
-0.0249283 0.021021 -0.106895 -0.0245909 0.0298547 -0.112837 -0.00505551 0.0296772 -0.105167 
-0.0072861 -0.0324382 -0.101596 -0.0145321 -0.0254892 -0.109338 -0.0126116 0.00075903 -0.102899 
-0.0439766 0.00696831 -0.100849 -0.0157064 0.0148467 -0.10134 -0.0153891 0.0258721 -0.101705 
-0.00938076 0.0283435 -0.100986 -0.0208726 0.0483057 -0.100396 -0.0136619 -0.00711923 -0.107141 
-0.0113842 0.0330078 -0.106739 -0.0141421 -0.0289115 -0.104343 -0.0215223 -0.00790873 -0.101341 
-0.0140583 -0.00457604 -0.101424 -0.0275287 0.0316192 -0.104186 -0.0198385 0.0337207 -0.101203 
-0.0125526 0.000700903 -0.0981353 -0.00624641 0.0129916 -0.0958805 -0.0186146 -0.0271402 -0.0906753 
-0.00523715 -0.00647974 -0.0931801 -0.0110222 0.021925 -0.0919122 -0.00913613 -0.0312941 -0.0867734 
-0.0256746 -0.0217519 -0.0887148 -0.0334121 0.00368684 -0.087386 -0.0245223 0.0145985 -0.0880977 
-0.0183381 0.00273344 -0.0844439 -0.011765 0.00818954 -0.086088 -0.000908632 -0.0201376 -0.0773796 
-0.00778825 0.00202854 -0.0792353 -0.004822 0.0167274 -0.07652 -0.0312596 -0.0282318 -0.0728039 
-0.00133703 -0.00658453 -0.0756175 -0.00508252 -0.0028679 -0.0746959 -0.0114835 0.00360093 -0.0737415 
-0.00736955 0.00915874 -0.0732805 -0.03335 -0.0101411 -0.0691284 -0.0132609 0.017575 -0.0717163 
-0.0230186 0.023228 -0.0684323 -0.0181876 -0.028381 -0.062418 -0.0342247 -0.0119118 -0.0619759 
-0.0327461 -0.00810316 -0.0639988 -0.0202693 -0.00943017 -0.0615836 -0.0228461 0.00943572 -0.0641443 
-0.00273627 0.0326024 -0.063482 -0.0290573 0.0260911 -0.0580587 -0.0270427 -0.0136491 -0.0564578 
-0.0244054 0.0234551 -0.0558414 -0.0338399 -0.0287184 -0.0515642 -0.0084722 -0.00462009 -0.0515202 
-0.0288682 0.0130299 -0.0519202 -0.00252809 0.0307765 -0.0541635 -0.000691472 0.0332631 -0.0519395 
-0.0309256 0.00918438 -0.0474668 -0.0252685 -0.0119457 -0.0456315 -0.0309119 -0.0207084 -0.0432696 
-0.0304536 -0.0123493 -0.0412586 -0.0272645 0.0231035 -0.043473 -0.0171117 -0.02331 -0.0364836 
-0.0209658 0.00969496 -0.0364846 -0.0340111 0.0266228 -0.0383172 -0.0203439 -0.0193455 -0.0340212 
-0.014458 -0.0138423 -0.0343309 -0.00968967 -0.00588877 -0.0340341 -0.00730513 0.0257586 -0.034586 
-0.00413281 -0.00792779 -0.0316005 -0.0152744 0.0211746 -0.0320263 -0.0170652 -0.0214262 -0.0267022 
-0.0255762 0.00585265 -0.026068 -0.0124469 0.0108555 -0.0263791 -0.0158837 -0.0171309 -0.0249503 
-0.0231605 0.0109416 -0.0238199 -0.0306741 -0.0048619 -0.0197875 -0.0148123 0.0147393 -0.018567 
-0.0109595 0.0300204 -0.0197269 -0.0265082 0.034934 -0.0200885 -0.0349344 -0.00127292 -0.0164344 
-0.0095853 0.0256603 -0.0150131 -0.00757771 0.0326856 -0.0178512 -0.0242978 0.00020127 -0.0144699 
-0.0341543 -0.0265255 -0.00774041 -0.0279163 0.0200822 -0.0104252 -0.0165238 0.0194762 -0.00753237 
-0.0196325 0.0295097 -0.00995775 -0.0196571 -0.0325483 -0.00631749 -0.0208036 0.00162734 -0.0061403 
-0.00343388 0.0316676 -0.00559145 -0.0120408 -0.0289279 -0.000141225 -0.0108823 -0.0240914 -0.00345547 
-0.0188893 -0.0164448 -0.000632807 -0.00434932 -0.0129336 -0.00161015 -0.00296015 0.00664907 -0.0014191 
-0.0303622 -0.0214325 0.000366901 -0.0141191 -0.0138017 0.00239494 -0.0252225 -0.00395457 0.00271973 
-0.027048 -0.0348853 0.00388228 -0.0250889 0.00553727 0.00652467 -0.0184752 -0.0330418 0.00845116 
-0.00344499 -0.0220199 0.00978714 -0.00418171 -0.00447311 0.00741662 -0.00876558 -0.00149609 0.0102161 
-0.0256427 -0.020268 0.012744 -0.0241229 -0.00156433 0.0131845 -0.0204765 0.00703928 0.0134079 
-0.0293092 0.0266251 0.0135066 -0.0346461 0.030431 0.0124677 -0.00515441 0.000607433 0.0156452 
-0.0259008 0.01415 0.0169937 -0.0318304 -0.0270523 0.018565 -0.0118162 -0.0172965 0.0203161 
-0.0107355 -0.0111371 0.0204417 -0.0288367 0.021507 0.0188863 -0.0208274 -0.00751444 0.022871 
-0.00974267 0.00154746 0.0250819 -0.0224693 0.00786627 0.0245679 -0.026015 0.0234799 0.0246344 
-0.0344795 0.0306845 0.0222535 -0.0310028 0.00427373 0.0261513 -0.0282123 0.0119421 0.0288641 
-0.00482279 0.0319284 0.027969 -0.0258414 -0.0246135 0.0320871 -0.0292124 -0.00857811 0.0298305 
-0.0120659 -0.000928847 0.0307681 -0.00423369 0.00513081 0.0306894 -0.00304149 0.01634 0.029062 
-0.0145727 0.0196597 0.0291668 -0.0230867 -0.0218823 0.0356193 -0.000558622 -0.0225112 0.0329587 
-0.00209585 -0.0253397 0.0380646 -0.0250933 5.52728e-05 0.0374314 -0.0131172 0.0174599 0.0389282 
-0.0054599 -0.0346412 0.0412191 -0.00205387 -0.0284209 0.042108 -0.0318304 -0.0245036 0.0410691 
-0.00209743 -0.0197497 0.0458872 -0.00797106 -0.0174946 0.0436198 -0.00426265 -0.00806252 0.0441359 
-0.032644 -0.0063197 0.0471173 -0.0153561 0.00561382 0.0443065 -0.029449 0.0175582 0.0445212 
-0.0135917 0.0274385 0.0459253 -0.0196875 0.000933277 0.0504701 -0.00532413 0.00347482 0.0481609 
-0.00315638 0.017114 0.0493223 -0.0215522 -0.0188967 0.0517109 -0.00832892 -0.0172649 0.054293 

VERTICES 366 732
1 0 
1 1 
1 2 
1 3 
1 4 
1 5 
1 6 
1 7 
1 8 
1 9 
1 10 
1 11 
1 12 
1 13 
1 14 
1 15 
1 16 
1 17 
1 18 
1 19 
1 20 
1 21 
1 22 
1 23 
1 24 
1 25 
1 26 
1 27 
1 28 
1 29 
1 30 
1 31 
1 32 
1 33 
1 34 
1 35 
1 36 
1 37 
1 38 
1 39 
1 40 
1 41 
1 42 
1 43 
1 44 
1 45 
1 46 
1 47 
1 48 
1 49 
1 50 
1 51 
1 52 
1 53 
1 54 
1 55 
1 56 
1 57 
1 58 
1 59 
1 60 
1 61 
1 62 
1 63 
1 64 
1 65 
1 66 
1 67 
1 68 
1 69 
1 70 
1 71 
1 72 
1 73 
1 74 
1 75 
1 76 
1 77 
1 78 
1 79 
1 80 
1 81 
1 82 
1 83 
1 84 
1 85 
1 86 
1 87 
1 88 
1 89 
1 90 
1 91 
1 92 
1 93 
1 94 
1 95 
1 96 
1 97 
1 98 
1 99 
1 100 
1 101 
1 102 
1 103 
1 104 
1 105 
1 106 
1 107 
1 108 
1 109 
1 110 
1 111 
1 112 
1 113 
1 114 
1 115 
1 116 
1 117 
1 118 
1 119 
1 120 
1 121 
1 122 
1 123 
1 124 
1 125 
1 126 
1 127 
1 128 
1 129 
1 130 
1 131 
1 132 
1 133 
1 134 
1 135 
1 136 
1 137 
1 138 
1 139 
1 140 
1 141 
1 142 
1 143 
1 144 
1 145 
1 146 
1 147 
1 148 
1 149 
1 150 
1 151 
1 152 
1 153 
1 154 
1 155 
1 156 
1 157 
1 158 
1 159 
1 160 
1 161 
1 162 
1 163 
1 164 
1 165 
1 166 
1 167 
1 168 
1 169 
1 170 
1 171 
1 172 
1 173 
1 174 
1 175 
1 176 
1 177 
1 178 
1 179 
1 180 
1 181 
1 182 
1 183 
1 184 
1 185 
1 186 
1 187 
1 188 
1 189 
1 190 
1 191 
1 192 
1 193 
1 194 
1 195 
1 196 
1 197 
1 198 
1 199 
1 200 
1 201 
1 202 
1 203 
1 204 
1 205 
1 206 
1 207 
1 208 
1 209 
1 210 
1 211 
1 212 
1 213 
1 214 
1 215 
1 216 
1 217 
1 218 
1 219 
1 220 
1 221 
1 222 
1 223 
1 224 
1 225 
1 226 
1 227 
1 228 
1 229 
1 230 
1 231 
1 232 
1 233 
1 234 
1 235 
1 236 
1 237 
1 238 
1 239 
1 240 
1 241 
1 242 
1 243 
1 244 
1 245 
1 246 
1 247 
1 248 
1 249 
1 250 
1 251 
1 252 
1 253 
1 254 
1 255 
1 256 
1 257 
1 258 
1 259 
1 260 
1 261 
1 262 
1 263 
1 264 
1 265 
1 266 
1 267 
1 268 
1 269 
1 270 
1 271 
1 272 
1 273 
1 274 
1 275 
1 276 
1 277 
1 278 
1 279 
1 280 
1 281 
1 282 
1 283 
1 284 
1 285 
1 286 
1 287 
1 288 
1 289 
1 290 
1 291 
1 292 
1 293 
1 294 
1 295 
1 296 
1 297 
1 298 
1 299 
1 300 
1 301 
1 302 
1 303 
1 304 
1 305 
1 306 
1 307 
1 308 
1 309 
1 310 
1 311 
1 312 
1 313 
1 314 
1 315 
1 316 
1 317 
1 318 
1 319 
1 320 
1 321 
1 322 
1 323 
1 324 
1 325 
1 326 
1 327 
1 328 
1 329 
1 330 
1 331 
1 332 
1 333 
1 334 
1 335 
1 336 
1 337 
1 338 
1 339 
1 340 
1 341 
1 342 
1 343 
1 344 
1 345 
1 346 
1 347 
1 348 
1 349 
1 350 
1 351 
1 352 
1 353 
1 354 
1 355 
1 356 
1 357 
1 358 
1 359 
1 360 
1 361 
1 362 
1 363 
1 364 
1 365 

POINT_DATA 366
FIELD FieldData 7
id 1 366 int
24 9 56 30 16 34 10 31 32 
6 23 3 19 33 7 22 60 1 
26 13 5 21 2 54 28 42 48 
40 57 68 29 50 45 11 36 46 
27 87 101 14 41 108 58 15 69 
38 88 18 51 53 49 43 99 52 
12 85 35 17 65 79 44 8 67 
4 64 70 73 55 59 92 76 47 
83 72 122 20 104 62 74 94 96 
109 84 39 63 71 82 93 81 110 
147 25 100 174 158 156 121 97 150 
118 95 37 154 66 113 124 120 144 
78 89 128 61 105 166 90 187 142 
91 123 75 130 125 116 80 86 126 
175 356 141 111 112 136 360 355 77 
358 354 127 359 361 98 362 163 167 
132 177 193 146 106 117 153 103 148 
133 162 102 131 164 138 157 119 204 
169 170 212 114 160 198 172 197 155 
140 161 178 182 207 137 179 129 191 
192 135 165 168 134 176 145 184 115 
199 183 208 196 181 200 205 149 171 
186 195 226 189 139 152 220 143 206 
223 151 209 222 107 211 218 188 202 
219 203 185 180 214 173 224 217 190 
159 194 210 213 201 221 215 225 227 
235 216 232 229 236 230 239 234 237 
228 233 231 247 238 251 249 241 245 
248 250 242 240 252 246 243 262 265 
258 259 244 256 257 253 260 255 264 
254 263 261 271 272 270 268 269 278 
266 274 275 276 277 273 286 267 289 
287 288 279 284 285 290 280 282 281 
297 283 302 300 294 298 299 295 293 
291 313 292 314 296 301 315 312 308 
309 311 310 303 306 304 307 305 321 
324 327 326 322 328 317 318 319 320 
334 316 323 325 335 340 332 337 333 
331 339 330 329 338 336 344 345 352 
346 350 347 343 351 349 348 341 342 
353 357 366 363 365 364 
type 1 366 int
1 1 1 1 1 1 1 1 1 
1 1 1 1 1 1 1 1 1 
1 1 1 1 1 1 1 1 1 
1 1 1 1 1 1 1 1 1 
1 1 1 1 1 1 1 1 1 
1 1 1 1 1 1 1 1 1 
1 1 1 1 1 1 1 1 1 
1 1 1 1 1 1 1 1 1 
1 1 1 1 1 1 1 1 1 
1 1 1 1 1 1 1 1 1 
1 1 1 1 1 1 1 1 1 
1 1 1 1 1 1 1 1 1 
1 1 1 1 1 1 1 1 1 
1 1 1 1 1 1 1 1 1 
1 1 1 1 1 1 1 1 1 
1 1 1 1 1 1 1 1 1 
1 1 1 1 1 1 1 1 1 
1 1 1 1 1 1 1 1 1 
1 1 1 1 1 1 1 1 1 
1 1 1 1 1 1 1 1 1 
1 1 1 1 1 1 1 1 1 
1 1 1 1 1 1 1 1 1 
1 1 1 1 1 1 1 1 1 
1 1 1 1 1 1 1 1 1 
1 1 1 1 1 1 1 1 1 
1 1 1 1 1 1 1 1 1 
1 1 1 1 1 1 1 1 1 
1 1 1 1 1 1 1 1 1 
1 1 1 1 1 1 1 1 1 
1 1 1 1 1 1 1 1 1 
1 1 1 1 1 1 1 1 1 
1 1 1 1 1 1 1 1 1 
1 1 1 1 1 1 1 1 1 
1 1 1 1 1 1 1 1 1 
1 1 1 1 1 1 1 1 1 
1 1 1 1 1 1 1 1 1 
1 1 1 1 1 1 1 1 1 
1 1 1 1 1 1 1 1 1 
1 1 1 1 1 1 1 1 1 
1 1 1 1 1 1 1 1 1 
1 1 1 1 1 1 
i 3 366 int
0 0 0 0 0 0 0 0 0 
0 0 0 0 0 0 0 0 0 
0 0 0 0 0 0 0 0 0 
0 0 0 0 0 0 0 0 0 
0 0 0 0 0 0 0 0 0 
0 0 0 0 0 0 0 0 0 
0 0 0 0 0 0 0 0 0 
0 0 0 0 0 0 0 0 0 
0 0 0 0 0 0 0 0 0 
0 0 0 0 0 0 0 0 0 
0 0 0 0 0 0 0 0 0 
0 0 0 0 0 0 0 0 0 
0 0 0 0 0 0 0 0 0 
0 0 0 0 0 0 0 0 0 
0 0 0 0 0 0 0 0 0 
0 0 0 0 0 0 0 0 0 
0 0 0 0 0 0 0 0 0 
0 0 0 0 0 0 0 0 0 
0 0 0 0 0 0 0 0 0 
0 0 0 0 0 0 0 0 0 
0 0 0 0 0 0 0 0 0 
0 0 0 0 0 0 0 0 0 
0 0 0 0 0 0 0 0 0 
0 0 0 0 0 0 0 0 0 
0 0 0 0 0 0 0 0 0 
0 0 0 0 0 0 0 0 0 
0 0 0 0 0 0 0 0 0 
0 0 0 0 0 0 0 0 0 
0 0 0 0 0 0 0 0 0 
0 0 0 0 0 0 0 0 0 
0 0 0 0 0 0 0 0 0 
0 0 0 0 0 0 0 0 0 
0 0 0 0 0 0 0 0 0 
0 0 0 0 0 0 0 0 0 
0 0 0 0 0 0 0 0 0 
0 0 0 0 0 0 0 0 0 
0 0 0 0 0 0 0 0 0 
0 0 0 0 0 0 0 0 0 
0 0 0 0 0 0 0 0 0 
0 0 0 0 0 0 0 0 0 
0 0 0 0 0 0 0 0 0 
0 0 0 0 0 0 0 0 0 
0 0 0 0 0 0 0 0 0 
0 0 0 0 0 0 0 0 0 
0 0 0 0 0 0 0 0 0 
0 0 0 0 0 0 0 0 0 
0 0 0 0 0 0 0 0 0 
0 0 0 0 0 0 0 0 0 
0 0 0 0 0 0 0 0 0 
0 0 0 0 0 0 0 0 0 
0 0 0 0 0 0 0 0 0 
0 0 0 0 0 0 0 0 0 
0 0 0 0 0 0 0 0 0 
0 0 0 0 0 0 0 0 0 
0 0 0 0 0 0 0 0 0 
0 0 0 0 0 0 0 0 0 
0 0 0 0 0 0 0 0 0 
0 0 0 0 0 0 0 0 0 
0 0 0 0 0 0 0 0 0 
0 0 0 0 0 0 0 0 0 
0 0 0 0 0 0 0 0 0 
0 0 0 0 0 0 0 0 0 
0 0 0 0 0 0 0 0 0 
0 0 0 0 0 0 0 0 0 
0 0 0 0 0 0 0 0 0 
0 0 0 0 0 0 0 0 0 
0 0 0 0 0 0 0 0 0 
0 0 0 0 0 0 0 0 0 
0 0 0 0 0 0 0 0 0 
0 0 0 0 0 0 0 0 0 
0 0 0 0 0 0 0 0 0 
0 0 0 0 0 0 0 0 0 
0 0 0 0 0 0 0 0 0 
0 0 0 0 0 0 0 0 0 
0 0 0 0 0 0 0 0 0 
0 0 0 0 0 0 0 0 0 
0 0 0 0 0 0 0 0 0 
0 0 0 0 0 0 0 0 0 
0 0 0 0 0 0 0 0 0 
0 0 0 0 0 0 0 0 0 
0 0 0 0 0 0 0 0 0 
0 0 0 0 0 0 0 0 0 
0 0 0 0 0 0 0 0 0 
0 0 0 0 0 0 0 0 0 
0 0 0 0 0 0 0 0 0 
0 0 0 0 0 0 0 0 0 
0 0 0 0 0 0 0 0 0 
0 0 0 0 0 0 0 0 0 
0 0 0 0 0 0 0 0 0 
0 0 0 0 0 0 0 0 0 
0 0 0 0 0 0 0 0 0 
0 0 0 0 0 0 0 0 0 
0 0 0 0 0 0 0 0 0 
0 0 0 0 0 0 0 0 0 
0 0 0 0 0 0 0 0 0 
0 0 0 0 0 0 0 0 0 
0 0 0 0 0 0 0 0 0 
0 0 0 0 0 0 0 0 0 
0 0 0 0 0 0 0 0 0 
0 0 0 0 0 0 0 0 0 
0 0 0 0 0 0 0 0 0 
0 0 0 0 0 0 0 0 0 
0 0 0 0 0 0 0 0 0 
0 0 0 0 0 0 0 0 0 
0 0 0 0 0 0 0 0 0 
0 0 0 0 0 0 0 0 0 
0 0 0 0 0 0 0 0 0 
0 0 0 0 0 0 0 0 0 
0 0 0 0 0 0 0 0 0 
0 0 0 0 0 0 0 0 0 
0 0 0 0 0 0 0 0 0 
0 0 0 0 0 0 0 0 0 
0 0 0 0 0 0 0 0 0 
0 0 0 0 0 0 0 0 0 
0 0 0 0 0 0 0 0 0 
0 0 0 0 0 0 0 0 0 
0 0 0 0 0 0 0 0 0 
0 0 0 0 0 0 0 0 0 
0 0 0 0 0 0 0 0 0 
0 0 0 0 0 0 0 0 0 
0 0 0 0 0 0 0 0 0 
0 0 0 0 0 0 0 0 0 

v 3 366 double
-1.43669 0.306154 -0.298221 -1.14811 -0.12122 -0.498349 -1.33973 -0.0985893 -0.583886 
-0.969909 -0.0154709 -0.397705 -1.04156 0.00170943 -0.464521 -1.10311 -0.288181 -0.417858 
-0.667307 -0.0778605 -0.273581 -1.0225 0.197762 -0.391855 -0.949506 0.0493315 -0.417926 
-0.796483 -0.139671 -0.373126 -0.702299 -0.00882764 -0.277702 -0.960128 0.141753 -0.416718 
-1.10455 -0.0972918 -0.583075 -0.849532 -0.131601 -0.505657 -0.779964 0.0352203 -0.334945 
-0.953405 -0.0218567 -0.387399 -0.97997 -0.0569937 -0.277498 -0.855821 0.0635171 -0.338683 
-0.997912 0.214727 -0.391064 -0.665 0.0547784 -0.277525 -0.854497 0.111189 -0.366531 
-0.84804 0.0680749 -0.348902 -1.03755 -0.225566 -0.351517 -0.865565 0.0933518 -0.265718 
-0.799776 0.176373 -0.314866 -0.657494 0.0139018 -0.270054 -0.727678 0.177525 -0.238238 
-0.734496 0.0532175 -0.29875 -0.763396 0.0548431 -0.309379 -1.05117 0.166339 -0.348334 
-0.577506 -0.0307173 -0.242519 -0.569892 -0.0134582 -0.241393 -0.652986 0.0655231 -0.274149 
-0.637196 0.122583 -0.227848 -1.11629 -0.00464861 -0.212639 -0.712772 -0.0170001 -0.00142785 
-1.09976 0.114049 -0.203427 -0.655123 -0.0469323 -0.34206 -0.856116 0.205819 -0.284222 
-0.58715 -0.0053334 -0.272019 -0.848692 0.0295198 -0.352805 -1.006 -0.209517 -0.343734 
-0.965852 -0.304657 -0.360978 -0.601106 -0.0050663 -0.206786 -0.667402 0.0405961 -0.163013 
-1.13035 0.0573879 -0.48513 -1.00769 -0.0314902 -0.259665 -0.620211 0.0457933 -0.245204 
-0.653455 0.00688224 -0.282934 -0.789769 -0.0534328 0.332069 -0.729274 -0.0574279 -0.303799 
-0.690894 0.0276452 -0.287232 -0.945706 -0.139262 -0.343655 -0.685059 -0.0480296 -0.0861589 
-0.510059 -0.0713811 -0.218241 -0.708345 -0.0374961 -0.748418 -0.668851 -0.0198183 -0.280773 
-0.659311 -0.175315 -0.300808 -0.509579 -0.0818617 -0.21976 -1.08104 -0.17736 -0.298592 
-0.682306 -0.0149087 -0.287239 -0.761044 0.0952807 -0.280498 -0.759038 -0.164113 -0.295671 
-0.755886 -0.0830226 -0.315979 -0.618215 -0.0171609 -0.245685 -0.813627 -0.0807273 -0.261217 
-0.601748 -0.128675 -0.260826 -0.674664 0.00346109 -0.202637 -0.697499 0.218145 -0.368116 
-0.82263 -0.0369808 -0.430801 -0.71831 -0.155182 -0.266871 -0.615112 -0.0371333 -0.254646 
-1.02762 -0.418202 -0.683136 -1.0148 0.0439145 -0.29337 -0.967222 0.0163124 -0.029324 
-0.698181 -0.00813967 -0.278103 -0.714173 -0.172009 -0.25454 -0.768264 -0.287594 -0.450275 
-0.596281 -0.0590739 -0.244493 -0.566059 -0.0893987 -0.233629 -0.713741 0.262029 -0.82715 
-0.707783 0.115205 -0.0895259 -0.603665 -0.100137 -0.702574 -0.651362 -0.152414 -0.275984 
-0.656701 -0.0494126 -0.720779 -0.645451 0.164438 -0.270578 -0.507145 -0.0385668 -0.218697 
-0.710545 0.0326213 -0.716606 -0.618176 -0.373926 -0.14843 -0.430617 -0.121417 -0.155018 
-0.775803 0.146069 -0.346849 -0.560807 0.0370806 -0.237309 -0.717035 0.128115 -0.757691 
-0.91915 0.292715 -0.75073 -0.710812 -0.106264 -0.385765 -0.856913 0.113647 -0.431809 
-0.601855 0.204992 -0.248065 -0.427179 -0.0162909 -0.137391 -0.547857 -0.0824349 -0.232962 
-0.57338 0.0946082 -0.532038 -0.657532 -0.0428858 -0.292046 -0.766693 0.014805 -0.274394 
-0.735713 0.0420025 -0.201185 -0.331683 0.0208573 -0.133878 -0.373833 0.107223 -0.141582 
-0.557154 0.396895 -0.201949 -0.555338 -0.171795 -0.338706 -0.469968 0.042698 -0.176727 
-0.547943 0.131901 -0.237816 -0.743134 -0.13755 -0.193913 -0.57782 -0.0108249 -0.257106 
-0.489367 -0.379171 -0.669558 -0.544048 -0.0541607 -0.230428 -0.942466 -0.200763 -0.463175 
-0.624186 -0.0872691 -0.350957 -0.551947 -0.196403 -0.300757 -0.856526 0.0923144 -0.32682 
-0.713811 -0.0898236 -0.711401 -0.435598 -0.000365127 -0.0866464 -0.698765 0.416094 -0.749967 
-0.866966 0.0983837 -0.531595 -0.726651 0.29919 -0.568147 -0.697265 -0.187622 -0.506711 
-0.656382 -0.0270119 -0.287882 -0.507585 -0.153965 -0.181867 -1.03618 -0.43509 -0.40502 
-0.670109 -0.033212 -0.294466 0 0 -1 -0.542914 0.242394 -0.0884636 
-0.694099 0.0796093 -0.618266 -0.723852 0.00933643 -0.56564 -0.708551 -0.0312659 -0.262931 
0 0 -1 0 0 -1 -0.774557 0.0466027 -0.0529716 
0 0 -1 0 0 -1 -0.626564 -0.0436045 -0.200103 
0 0 -1 0 0 -1 -0.474629 0.166401 -0.444694 
0 0 -1 -0.83354 -0.361594 -0.312619 -0.761135 0.0815401 -0.197462 
-0.963723 0.268565 -0.133867 -0.890587 0.29075 -0.113548 -0.154186 0.517549 -0.107727 
-0.723647 0.456217 -0.0156402 -0.244848 0.126673 -0.0786471 -0.414654 0.0390724 -0.174847 
-0.662004 0.109338 0.068595 -0.679876 -0.176736 -0.623331 -0.879891 0.228258 -0.394308 
-0.729379 -0.109927 -0.322492 -0.852857 -0.129779 -0.284224 -0.434055 0.0581548 -0.176378 
-0.452715 0.0602225 -0.192149 -0.595399 -0.119973 -0.265002 -0.665899 -0.0878805 -0.1994 
-0.547553 -0.020675 -0.223389 -0.330347 -0.106929 -0.106899 -0.629556 0.205163 -0.00849509 
-0.0544238 0.259648 0.145181 -0.475646 0.140346 -0.528383 0.184116 0.119828 0.000871762 
-0.700478 0.2882 -0.496447 -0.338638 0.0114753 -0.16378 -0.758237 0.0215414 0.142962 
-0.446687 0.072818 -0.186014 -0.128686 0.0338538 0.129056 -0.661175 0.0869182 -0.404449 
-0.571036 -0.0203545 -0.593772 -0.610653 -0.33883 -0.485564 -0.5384 0.0244608 -0.315663 
-0.720465 -0.294153 0.000287336 0.0757511 -0.121913 -0.170217 -0.718017 -0.258545 -0.0642761 
-0.0131352 -0.0149115 -0.0284141 -0.488742 -0.117456 -0.0673332 -0.492995 0.117643 -0.0927672 
-0.943718 0.0829011 -0.0456296 -0.437577 0.365422 -0.151564 -0.513356 -0.0291514 -0.164606 
-0.608233 0.200088 -0.134911 -0.721012 0.264699 -0.412479 -0.797187 -0.204279 -0.118528 
-0.749636 0.177467 -0.286423 -0.456546 0.308584 -0.140324 -0.461292 -0.264809 -0.165118 
-0.942729 0.245077 -0.326033 -0.552884 0.338637 -0.150584 -0.581831 -0.151805 0.037644 
-0.874506 -0.348042 -0.0470026 -0.717043 -0.319756 -0.0315138 -0.720911 -0.321481 0.0485613 
-0.606956 0.260552 -0.0302615 -0.0760145 -0.173603 -0.0488472 -0.375303 -0.128025 -0.0120972 
-0.747568 0.139546 -0.00296372 0.0377387 -0.335671 0.299808 -0.505668 -0.353009 -0.22856 
0.038713 -0.353979 -0.129866 -0.716655 0.227577 -0.3472 -0.564397 -0.0160026 -0.417923 
-0.685358 0.13008 0.105562 -0.727483 0.268858 -0.491465 -0.743202 0.0174627 -0.0504618 
-0.176346 -0.387232 -0.6798 -0.305038 0.0711387 -0.316875 -0.721182 -0.262058 0.16696 
-0.718563 -0.261107 0.184385 -0.186878 -0.187955 -0.0182597 -0.700245 0.288104 0.185684 
-0.71625 0.26295 0.189392 -0.721806 0.26499 -0.0345183 -0.718322 0.128345 0.175892 
-0.528063 0.63258 -0.0400498 -0.733449 -0.171302 0.119402 -0.720821 -0.261927 -0.06718 
-0.516135 -0.217682 -0.323186 -0.701634 -0.329299 0.252096 -0.13949 0.0501342 -0.082593 
-0.696734 0.254888 0.189385 -0.568987 0.326524 0.133449 -0.338949 -0.0989425 -0.612764 
-0.588376 -0.269288 -0.0827387 -0.707116 -0.181681 0.0695175 -0.453841 -0.057253 0.270043 
-0.69277 -0.319147 0.117901 -0.62777 0.377698 -0.00989423 0 0 -2.02068 
0 0 -2.01872 0 0 -2.00705 0 0 -1.99233 
0 0 -1.99272 0 0 -2.00626 0 0 -1.99164 
-0.145843 -0.0560497 -1.30471 0 0 -1.96525 0 0 -1.93906 
0 0 -1.95172 0 0 -1.94534 0 0 -1.91925 
0 0 -1.92915 0 0 -1.92239 0 0 -1.92601 
0 0 -1.90728 0 0 -1.91571 0 0 -1.87059 
0 0 -1.8803 0 0 -1.86608 0 0 -1.84646 
0 0 -1.86137 0 0 -1.85646 0 0 -1.85146 
0 0 -1.84901 0 0 -1.82684 0 0 -1.84067 
0 0 -1.82311 0 0 -1.79044 0 0 -1.78799 
0 0 -1.79907 0 0 -1.78583 0 0 -1.79986 
0 0 -1.79623 0 0 -1.76641 0 0 -1.75748 
0 0 -1.75405 0 0 -1.72991 0 0 -1.72972 
0 0 -1.73197 0 0 -1.74463 0 0 -1.73207 
0 0 -1.70657 0 0 -1.69597 0 0 -1.68224 
0 0 -1.67046 0 0 -1.68341 0 0 -1.64221 
0 0 -1.64221 0 0 -1.6531 0 0 -1.6274 
0 0 -1.62926 0 0 -1.6275 0 0 -1.63083 
0 0 -1.61278 0 0 -1.61533 0 0 -1.58266 
0 0 -1.57874 0 0 -1.5807 0 0 -1.57178 
0 0 -1.56471 0 0 -1.53921 0 0 -1.53146 
0 0 -1.53881 0 0 -1.54117 0 0 -1.51772 
0 0 -1.5085 0 0 -1.52685 0 0 -1.50497 
0 0 -1.46043 0 0 -1.47838 0 0 -1.45906 
0 0 -1.47525 0 0 -1.45082 0 0 -1.44964 
0 0 -1.44591 0 0 -1.40844 0 0 -1.43139 
0 0 -1.41187 0 0 -1.41864 0 0 -1.41737 
0 0 -1.40491 0 0 -1.39068 0 0 -1.38843 
0 0 -1.38019 0 0 -1.36125 0 0 -1.34732 
0 0 -1.33751 0 0 -1.35478 0 0 -1.33437 
0 0 -1.31564 0 0 -1.3124 0 0 -1.31073 
0 0 -1.30995 0 0 -1.3177 0 0 -1.29386 
0 0 -1.28356 0 0 -1.27149 0 0 -1.25795 
0 0 -1.25697 0 0 -1.26904 0 0 -1.23784 
0 0 -1.22019 0 0 -1.22431 0 0 -1.22382 
0 0 -1.24275 0 0 -1.21155 0 0 -1.18938 
0 0 -1.19674 0 0 -1.1625 0 0 -1.18144 
0 0 -1.17359 0 0 -1.17427 0 0 -1.18781 
0 0 -1.18693 0 0 -1.13229 0 0 -1.15515 
0 0 -1.1109 0 0 -1.11649 0 0 -1.10325 
0 0 -1.08275 0 0 -1.07461 0 0 -1.08412 
0 0 -1.03958 0 0 -1.06077 0 0 -1.05597 
0 0 -1.02791 0 0 -1.0544 0 0 -1.05234 
0 0 -1.03919 0 0 -1 0 0 -1.0179 
0 0 -1.00662 0 0 -1 0 0 -1 

f 3 366 double
0 0 -0.000346714 -8.79573e-05 -1.76368e-05 -3.99192e-05 -8.5105e-05 -4.08537e-05 -4.56558e-05 
0 0 -0.000346714 0 0 -0.00160516 -8.68186e-05 3.60394e-05 -4.32408e-05 
-8.94024e-05 1.09962e-05 -2.73148e-05 2.43098e-07 -1.73841e-05 0.000485693 0 0 -0.000346714 
0 0 -0.000346714 2.49816e-05 1.72982e-07 -0.000367919 0.000938992 -9.60853e-05 -0.00343711 
0 0 -0.000346714 0 0 -0.000346714 -8.8632e-05 6.31946e-06 -4.08125e-05 
-0.00014357 -1.46521e-05 7.60199e-05 0 0 -0.000346714 0.00052639 0.000281857 -0.00262495 
0 0 -0.00160516 -0.000180832 1.02237e-05 0.000132985 -0.000422747 4.37757e-06 -0.00016236 
0 0 -0.000346714 0 0 -0.00160516 0 0 -0.00160516 
-0.000152725 -1.62463e-05 -0.000796364 -8.973e-05 -1.49087e-05 -8.31479e-06 0 0 -0.000346714 
7.27282e-05 1.93776e-05 0.00034489 -0.000664102 0.000254763 0.000889286 -7.25463e-05 -7.82393e-05 -6.56965e-05 
0.000137381 -0.000435952 0.00217668 4.65306e-05 -0.000191034 0.000280867 0 0 -0.000346714 
0 0 -0.000346714 0 0 -0.000346714 0 0 -0.000346714 
0 0 -0.00160516 0 0 -0.000346714 0 0 -0.00160516 
-0.012757 -0.0128483 0.0623618 -0.000196357 -6.80905e-05 -0.000587394 -7.96864e-05 6.06875e-05 -5.13271e-05 
0 0 -0.000346714 0 0 -0.00160516 0 0 -0.000346714 
0 0 -0.00160516 0 0 -0.000346714 0 0 -0.000346714 
0 0 -0.00160516 0 0 -0.00160516 -0.000110158 1.71412e-05 -3.84223e-05 
-0.000107795 -1.96904e-05 1.08633e-05 0 0 -0.000346714 0 0 -0.00160516 
-0.00028063 -0.000232554 0.00079862 0 0 -0.000346714 -8.82581e-05 -2.56233e-06 -3.71352e-05 
0 0 -0.00160516 -0.000532205 -7.84711e-05 -0.00022977 -0.022901 -0.0104208 0.061297 
-7.6244e-05 -4.32742e-05 -6.59323e-05 -1.81065e-05 -1.2902e-05 -0.000181477 -0.000389907 0.000119243 -0.000205476 
-0.000396381 5.23344e-05 -0.000213892 0 0 -0.00160516 0 0 -0.000346714 
-3.93364e-05 -6.07419e-06 -0.000169348 0 0 -0.000346714 0 0 -0.000346714 
0 0 -0.00160516 -0.00039223 0.000189008 -0.000200327 -3.70128e-05 3.70317e-06 -0.000170506 
0 0 -0.000346714 0 0 -0.000346714 0 0 -0.000346714 
-7.43477e-05 7.82821e-05 -6.3222e-05 -0.00275801 0.00132292 0.00352317 0 0 -0.000346714 
-8.76066e-05 2.46295e-05 -3.98709e-05 -8.8247e-05 9.86536e-06 -3.754e-05 0 0 -0.000346714 
0 0 -0.000346714 0 0 -0.000346714 -0.000406996 -1.80283e-05 -0.000175058 
0 0 -0.00160516 -8.90543e-05 -4.58996e-06 -3.79304e-05 -8.91346e-05 -1.89531e-05 -3.75783e-05 
0 0 -0.000346714 0 0 -0.000346714 -8.48919e-05 3.98897e-05 -4.30056e-05 
-0.000138704 6.26338e-05 -3.00181e-05 -9.08713e-05 1.01555e-05 -3.22985e-05 0 0 -0.000346714 