# vtk DataFile Version 4.0
Generated by LIGGGHTS
ASCII
DATASET POLYDATA
POINTS 430 float
-0.266762 0.0169021 -0.217228 -0.24566 0.000578427 -0.209621 -0.220724 -0.0246155 -0.196623 
-0.225911 -0.00126331 -0.200191 -0.223776 -0.038083 -0.194525 -0.217909 -0.0127713 -0.196167 
-0.219729 0.0362347 -0.193607 -0.214146 -0.0275873 -0.19032 -0.305481 0.079635 -0.186654 
-0.208368 0.0362826 -0.18779 -0.208523 0.0644527 -0.176396 -0.203761 -0.0141525 -0.18999 
-0.0628466 0.0251783 -0.125968 -0.198962 -0.0120534 -0.18931 -0.19253 -0.0116543 -0.18664 
-0.19059 -0.0141695 -0.185187 -0.189347 -0.00955967 -0.185575 -0.189406 0.00375215 -0.185852 
-0.0496722 0.00573403 -0.126778 -0.188722 -0.00704371 -0.183703 -0.184497 -0.00556764 -0.183654 
-0.187026 -0.00188797 -0.183503 -0.188476 0.0170643 -0.183317 -0.174949 -0.00433218 -0.179646 
-0.172663 0.000742484 -0.177692 -0.19222 0.00847144 -0.179064 -0.180529 0.0051206 -0.18104 
-0.179624 0.00923585 -0.181392 -0.181872 0.0131744 -0.181834 -0.173148 0.0143108 -0.177126 
-0.166686 0.0129382 -0.174543 -0.167183 0.0180907 -0.175411 -0.0810062 -0.00169931 -0.12921 
-0.179942 0.000866404 -0.175108 -0.157436 0.00550605 -0.172306 -0.185885 0.0148313 -0.177391 
-0.158403 0.0123403 -0.170999 -0.162319 0.0201598 -0.173095 -0.16788 0.0256164 -0.173308 
-0.183516 -0.0573711 -0.170732 -0.165364 -0.0389999 -0.170399 -0.164313 -0.00699897 -0.170706 
-0.145223 -0.00457087 -0.16724 -0.151708 -0.00261722 -0.168921 -0.151073 0.00139996 -0.169078 
-0.175893 0.00144315 -0.173823 -0.149719 0.00430377 -0.169066 -0.153973 0.0169969 -0.168839 
-0.173511 -0.0555701 -0.167715 -0.1447 -0.0243555 -0.16507 -0.143357 -0.00823906 -0.165202 
-0.136507 -0.00388346 -0.163539 -0.143026 -5.2333e-06 -0.166324 -0.144557 0.00283558 -0.166602 
-0.136905 0.00252659 -0.163651 -0.153559 0.00432862 -0.16771 -0.144394 0.00699302 -0.164899 
-0.143729 0.0111382 -0.166281 -0.145907 0.0144558 -0.166794 -0.161705 0.0506396 -0.165133 
-0.135959 -0.0172633 -0.16134 -0.140593 -0.00962068 -0.160444 -0.129175 -0.00679067 -0.160393 
-0.139159 -0.000875379 -0.159952 -0.131908 -0.00185903 -0.160563 -0.128063 -0.000134014 -0.160072 
-0.141004 0.029524 -0.162467 -0.14806 0.0371952 -0.163812 -0.147341 -0.0428066 -0.16082 
-0.134853 -0.0328344 -0.158226 -0.136759 -0.00644749 -0.15769 -0.126626 -0.00346687 -0.158689 
-0.121773 -0.00455915 -0.157317 -0.128749 -0.000340262 -0.15647 -0.124845 0.00120465 -0.157607 
-0.120902 0.00239383 -0.157011 -0.125569 0.00629629 -0.157681 -0.121257 0.00575062 -0.15682 
-0.14706 0.0520953 -0.158676 -0.140246 -0.0554579 -0.154499 -0.16094 -0.0570022 -0.160641 
-0.130938 -0.0404993 -0.154688 -0.125071 -0.0381975 -0.153002 -0.128868 -0.0365151 -0.156043 
-0.119139 -0.012289 -0.155528 -0.118716 -0.00729692 -0.155942 -0.116215 -0.00986415 -0.153625 
-0.113612 -0.00584254 -0.15388 -0.123747 -0.0023847 -0.156231 -0.119651 -0.00105725 -0.155288 
-0.148242 0.000569026 -0.153621 -0.131797 0.00152074 -0.154492 -0.1231 0.00744345 -0.154608 
-0.13119 0.0362902 -0.155695 -0.133474 0.0415144 -0.155503 -0.111911 -0.0215507 -0.151748 
-0.107813 -0.0193052 -0.150192 -0.107912 -0.016338 -0.15076 -0.106834 -0.0135072 -0.150391 
-0.123637 -0.00107175 -0.153474 -0.113196 0.0102049 -0.152216 -0.139043 0.0136567 -0.154335 
-0.109855 0.0124779 -0.151812 -0.105514 0.013495 -0.149464 -0.107921 0.0208878 -0.15017 
-0.0970208 -0.00813407 -0.146708 -0.106806 -0.00763983 -0.149379 -0.102486 -0.00675801 -0.149112 
-0.118924 -0.00478226 -0.150792 -0.1364 0.00315263 -0.149312 -0.120779 0.000252237 -0.151483 
-0.106346 0.00320594 -0.146985 -0.0961224 0.00373148 -0.146501 -0.100309 0.00660245 -0.147419 
-0.0967893 0.00905733 -0.145444 -0.113836 0.0112619 -0.147621 -0.102334 0.0133699 -0.148375 
-0.10272 0.0165008 -0.148516 -0.101702 0.0210665 -0.146445 -0.11352 -0.0605067 -0.141635 
-0.110678 -0.0515424 -0.143744 -0.0938792 -0.00542389 -0.144468 -0.0884252 -0.00538677 -0.142155 
-0.0869899 -4.94703e-05 -0.141608 -0.157084 0.000761791 -0.143559 -0.0891254 0.00291566 -0.143549 
-0.0945557 0.00500674 -0.142911 -0.0931282 0.0100106 -0.14337 -0.0931926 0.0226869 -0.143692 
-0.0927065 0.0270164 -0.141769 -0.0957851 -0.0422623 -0.14081 -0.0920283 -0.0316017 -0.14177 
-0.0932433 -0.021119 -0.142606 -0.0880361 -0.018989 -0.142047 -0.083911 -0.0078003 -0.141093 
-0.118107 -0.000887882 -0.142684 -0.104047 0.00148869 -0.142457 -0.099116 -0.00342236 -0.143033 
-0.0799652 0.000288323 -0.138621 -0.09681 0.00159689 -0.141615 -0.0999092 0.00739406 -0.14286 
-0.0856336 0.00542434 -0.140239 -0.0815706 0.00947846 -0.138592 -0.094705 0.0124365 -0.140479 
-0.124474 0.0156658 -0.13699 -0.0875826 0.0347099 -0.139322 -0.0997334 0.0527919 -0.139184 
-0.0926505 -0.052453 -0.136477 -0.0795774 -0.0136 -0.137705 -0.073805 -0.00389031 -0.137125 
-0.0693607 0.00600433 -0.135151 -0.0915072 0.011222 -0.136708 -0.0756082 0.00895201 -0.136648 
-0.0705022 0.0104751 -0.134369 -0.0805042 0.0207818 -0.138752 -0.0784293 0.0266781 -0.136703 
-0.0995706 -0.0159393 -0.136986 -0.0701404 -0.00304977 -0.132878 -0.0662095 -0.00376519 -0.132829 
-0.0837792 0.000171275 -0.133358 -0.0841502 0.00951994 -0.133144 -0.079658 0.0102131 -0.134649 
-0.0653173 0.0174963 -0.131536 -0.0624434 0.0146626 -0.13169 -0.0795978 0.0316827 -0.133502 
-0.0798928 -0.028861 -0.133311 -0.0718979 -0.0143625 -0.133481 -0.0587658 -0.015423 -0.129027 
-0.0534744 -0.0113592 -0.128194 -0.0792085 -0.00855195 -0.134176 -0.0533034 -0.00566839 -0.127284 
-0.0629477 -0.00245844 -0.129122 -0.0523135 -0.000402197 -0.127007 -0.0550666 0.00512498 -0.129139 
-0.0616536 0.0108642 -0.130641 -0.0573043 0.00954761 -0.128403 -0.100245 -0.0440759 -0.130443 
-0.0493684 -0.00732818 -0.126185 -0.0940879 0.00275965 -0.129774 -0.0540895 -0.0260373 -0.126956 
-0.0478337 0.0024254 -0.126114 -0.0504989 -0.0159797 -0.126599 -0.0855037 0.00608037 -0.128108 
-0.0599442 -0.0285009 -0.127705 -0.0911589 -0.0118425 -0.127595 -0.0520603 0.0105042 -0.126548 
-0.0626229 -0.0341013 -0.128359 -0.0462322 -0.000455616 -0.125498 -0.0525765 -0.0208422 -0.125678 
-0.0873969 0.010546 -0.126391 -0.078236 0.00360738 -0.126246 -0.082705 -0.00264368 -0.125563 
-0.0517724 0.027165 -0.1258 -0.0590193 -0.0456132 -0.124702 -0.0144604 0.0146238 0.0491534 
-0.0267273 0.0202325 0.0458455 -0.00353272 0.0202053 0.0426416 -0.0067008 0.0110709 0.0349126 
-0.0109636 -0.0311008 0.0463802 -0.0143365 -0.0079604 0.0425248 -0.044181 -0.013023 -0.124225 
-0.00986991 0.00120138 0.051449 -0.0255212 -0.0322233 0.0378667 -0.0129094 -0.0188123 0.0458657 
-0.00135906 -0.0285348 0.0479479 -0.0293542 -0.0154504 0.0500596 -0.0194255 -0.0262921 0.0464271 
-0.0479484 0.00507368 -0.124292 -0.0136772 0.0221297 0.0429009 -0.0429293 0.00917395 -0.123822 
-0.0215899 -0.0111508 0.0369105 -0.00957752 -0.023935 0.0445277 -0.00801538 0.0199359 0.0390866 
-0.0291051 0.026364 0.0400213 -0.0466148 -0.0225969 -0.122679 -0.0440282 -0.0181069 -0.122533 
-0.0393723 -0.0127032 -0.121014 -0.0503335 -0.00615156 -0.122828 -0.0458801 -0.00792841 -0.121677 
-0.0402129 -0.00875532 -0.119908 -0.0188515 -0.0248569 0.0351224 -0.0612583 -0.00491313 -0.123171 
-0.0420529 -0.00630533 -0.122448 -0.0431395 6.85688e-05 -0.12292 -0.0351564 0.00404295 -0.120448 
-0.0840891 0.00319374 -0.123419 -0.0319573 -0.0211048 0.0337341 -0.0732662 0.00752197 -0.122952 
-0.0454669 0.00437011 -0.122327 -0.03926 0.00427838 -0.117912 -0.0368527 0.00645909 -0.121352 
-0.0576483 0.00645082 -0.124906 -0.0534544 0.00503486 -0.124211 -0.0516867 0.0102095 -0.121649 
-0.0560157 0.0133648 -0.122364 -0.0458083 0.0151604 -0.120927 -0.0488373 0.031599 -0.12237 
-0.060161 0.0486513 -0.122478 -0.0384497 -0.0363597 -0.113199 -0.0370369 -0.0271494 -0.118487 
-0.0430091 -0.0178044 -0.1149 -0.0484073 -0.0142386 -0.121046 -0.0360087 -0.0163236 -0.120285 
-0.0716365 -0.006278 -0.122196 -0.0333825 -0.00853405 -0.114136 -0.0286375 -0.00658952 -0.116645 
-0.0769257 -0.00811181 -0.120864 -0.0311816 -0.00443614 -0.118472 -0.0542539 0.00191735 -0.117791 
-0.0285203 -0.000765516 -0.11688 -0.0308705 0.00372659 -0.117158 -0.0591044 0.0120552 -0.112727 
-0.0406779 0.00980108 -0.115886 -0.048604 0.0134296 -0.118271 -0.0396712 0.0193488 -0.116585 
-0.0216218 -0.0306886 0.0364556 -0.0369896 0.0259073 -0.11846 -0.0236122 -0.0248555 -0.112584 
-0.0445955 -0.0158051 -0.111315 -0.0259628 -0.015419 -0.109452 -0.0296684 -0.016876 -0.111732 
-0.0518982 -0.012142 -0.117005 -0.0620649 -0.0121362 -0.11797 -0.0469992 -0.0131162 -0.113848 
-0.0167116 -0.0118846 -0.111977 -0.0416026 -0.00544795 -0.110467 -0.0582896 0.00748235 -0.110161 
-0.0253115 0.017346 -0.113654 -0.031879 0.0184117 -0.114735 -0.023508 0.0209213 -0.114757 
-0.0268312 0.0304232 -0.113843 -0.0562239 0.0691459 -0.115109 -0.0355924 -0.0610225 -0.110254 
-0.0225709 -0.0197537 -0.110882 -0.0486777 -0.0180649 -0.113941 -0.0220027 -0.0159887 -0.109099 
-0.0190228 -0.012168 -0.105349 -0.0178707 -0.00481999 -0.111292 -0.0575398 0.00138929 -0.112891 
-0.0103995 0.00286564 -0.106599 -0.0552566 0.00491716 -0.112587 -0.0189728 0.00951483 -0.108823 
-0.0623703 0.0143165 -0.114083 -0.0588703 0.0161168 -0.110593 -0.0554301 0.0170165 -0.111267 
-0.0210616 0.0198279 -0.108781 -0.0164086 0.0310794 -0.110373 -0.0117234 -0.0315195 -0.10625 
-0.0291259 -0.0130072 -0.108991 -0.0144422 -0.00643378 -0.104815 -0.039258 -0.00417482 -0.120608 
-0.0272811 -0.00425278 -0.107561 -0.0289038 -0.00448402 -0.114327 -0.0415109 0.00574723 -0.105873 
-0.0331095 0.00867466 -0.114889 -0.038978 0.0122919 -0.106237 -0.0270163 0.0103605 -0.114146 
-0.0457787 0.0138073 -0.107881 -0.0294831 0.0174329 -0.110128 -0.0159594 0.0164279 -0.111071 
-0.0297028 0.0231932 -0.109986 -0.0330738 -0.00432831 -0.115238 -0.0328916 -0.00390099 -0.104075 
0.00806262 0.01995 -0.101476 -0.0192322 0.02614 -0.111505 -0.0294085 0.0337333 -0.112161 
-0.0176193 0.0137043 -0.110987 -0.0143394 0.0300236 -0.106215 -0.0102134 0.031682 -0.104961 
-0.0352708 -0.000657115 -0.113719 -0.0242978 0.00020127 -0.11413 -0.0117311 0.0248364 -0.107781 
-0.0278206 0.020704 -0.106079 -0.0196325 0.0295097 -0.107954 -0.0196571 -0.0325483 -0.102945 
-0.0341543 -0.0265255 -0.104907 -0.0208036 0.00162734 -0.102702 -0.0165238 0.0194762 -0.104622 
-0.0108823 -0.0240914 -0.0989957 -0.00343388 0.0316676 -0.101945 -0.0188893 -0.0164448 -0.0950798 
-0.00434932 -0.0129336 -0.0964362 -0.00296015 0.00664907 -0.0961737 -0.0120408 -0.0289279 -0.0943959 
-0.0303622 -0.0214325 -0.09369 -0.027048 -0.0348853 -0.0887903 -0.0141191 -0.0138017 -0.0908654 
-0.0252225 -0.00395457 -0.0904143 -0.00418171 -0.00447311 -0.0838331 -0.0250889 0.00553727 -0.0850876 
-0.0184752 -0.0330418 -0.082381 -0.00344499 -0.0220199 -0.0804957 -0.00876558 -0.00149609 -0.079891 
-0.0256427 -0.020268 -0.0763138 -0.0346461 0.030431 -0.0767054 -0.0241229 -0.00156433 -0.075692 
-0.0204765 0.00703928 -0.0753752 -0.0293092 0.0266251 -0.0752326 -0.00515441 0.000607433 -0.072193 
-0.0259008 0.01415 -0.0702676 -0.0318304 -0.0270523 -0.0680206 -0.0118162 -0.0172965 -0.0655114 
-0.0107355 -0.0111371 -0.0653308 -0.0288367 0.021507 -0.067562 -0.0208274 -0.00751444 -0.0618303 
-0.0344795 0.0306845 -0.0627225 -0.00974267 0.00154746 -0.0586306 -0.0224693 0.00786627 -0.0593753 
-0.026015 0.0234799 -0.0592813 -0.0310028 0.00427373 -0.0570777 -0.00482279 0.0319284 -0.0544305 
-0.0292124 -0.00857811 -0.051712 -0.0120659 -0.000928847 -0.0503349 -0.00423369 0.00513081 -0.0504521 
-0.0282123 0.0119421 -0.0531234 -0.00304149 0.01634 -0.0528376 -0.0145727 0.0196597 -0.0526833 
-0.0258414 -0.0246135 -0.0483951 -0.000558622 -0.0225112 -0.0471115 -0.0230867 -0.0218823 -0.0431709 
-0.00209585 -0.0253397 -0.039528 -0.0250933 5.52728e-05 -0.0404743 -0.0131172 0.0174599 -0.0382359 
-0.0054599 -0.0346412 -0.0347969 -0.00205387 -0.0284209 -0.033452 -0.0318304 -0.0245036 -0.0350237 
-0.00209743 -0.0197497 -0.0277116 -0.00797106 -0.0174946 -0.0311655 -0.00426265 -0.00806252 -0.0303803 
-0.0153561 0.00561382 -0.0301218 -0.029449 0.0175582 -0.0297917 -0.0135917 0.0274385 -0.0276514 
-0.032644 -0.0063197 -0.0258277 -0.00532413 0.00347482 -0.0242238 -0.0196875 0.000933277 -0.0206521 
-0.00315638 0.017114 -0.0224306 -0.0215522 -0.0188967 -0.0187434 -0.00977287 0.0109784 -0.0196574 
-0.0243451 0.0195956 -0.0197812 -0.0168696 0.0180085 -0.0177021 -0.0135751 0.0240704 -0.0182056 
-0.0164984 0.0336061 -0.0184286 -0.00832892 -0.0172649 -0.0148201 -0.0184795 -0.0269407 -0.00897435 
-0.00858455 -0.00884288 -0.010916 -0.00390427 -0.00527178 -0.00975175 -0.0310592 -0.00121585 -0.00944224 
-0.0162721 0.0114791 -0.0114173 -0.00639582 0.00662071 -0.00543361 -0.00937081 0.0258081 -0.0078123 
-0.00657095 -0.0222035 -0.00334271 -0.00665099 -0.0147089 -0.00446479 -0.0206177 -0.0113305 -0.00437693 
-0.0123384 -0.0119647 -0.00435337 -0.0104872 0.0175218 -0.00375691 -0.0079193 0.0298979 -0.00151118 
-0.029518 -0.0259191 -0.000394055 -0.0235714 -0.0119867 0.00236419 -0.0213451 -0.000776551 -0.00106853 
-0.0220216 -0.0115727 0.00781719 -0.0321609 -0.00607507 0.00911604 -0.0299907 0.00855733 0.00895292 
-0.0077538 0.0171361 0.0100678 -0.00221027 0.0186146 0.0101669 -0.0173855 -0.0338902 0.011151 
-0.00676706 -0.00981008 0.011239 -0.00131466 0.00705789 0.0112384 -0.0311671 0.0123986 0.0122497 
-0.0107659 0.0283687 0.0123938 -0.0183398 -0.0212097 0.0151278 -0.0223604 0.0276055 0.0160586 
-0.00517262 0.0323307 0.016639 -0.0287336 -0.0143436 0.0214953 -0.0138788 -0.0162448 0.0207918 
-0.00452227 -8.57609e-05 0.0214753 -0.0208051 -0.0257611 0.024986 -0.00399213 -0.0264375 0.0219732 
-0.0318082 0.0208697 0.0234488 -0.0232248 0.018953 0.0217135 -0.00341211 0.0279138 0.024535 
-0.00154371 -0.0346722 0.0277613 -0.0239192 -0.011198 0.0268863 -0.00558275 -0.00455966 0.0268322 
-0.0193685 0.0119819 0.028544 -0.0345917 -0.0281976 0.0306778 -0.0293509 -0.0255557 0.0296163 
-0.00861311 0.0156758 0.0330714 -0.0191536 0.0271245 0.0309814 -0.0124901 0.0292455 0.0327243 
-0.0184641 0.0346143 0.0328103 
VERTICES 430 860
1 0 
1 1 
1 2 
1 3 
1 4 
1 5 
1 6 
1 7 
1 8 
1 9 
1 10 
1 11 
1 12 
1 13 
1 14 
1 15 
1 16 
1 17 
1 18 
1 19 
1 20 
1 21 
1 22 
1 23 
1 24 
1 25 
1 26 
1 27 
1 28 
1 29 
1 30 
1 31 
1 32 
1 33 
1 34 
1 35 
1 36 
1 37 
1 38 
1 39 
1 40 
1 41 
1 42 
1 43 
1 44 
1 45 
1 46 
1 47 
1 48 
1 49 
1 50 
1 51 
1 52 
1 53 
1 54 
1 55 
1 56 
1 57 
1 58 
1 59 
1 60 
1 61 
1 62 
1 63 
1 64 
1 65 
1 66 
1 67 
1 68 
1 69 
1 70 
1 71 
1 72 
1 73 
1 74 
1 75 
1 76 
1 77 
1 78 
1 79 
1 80 
1 81 
1 82 
1 83 
1 84 
1 85 
1 86 
1 87 
1 88 
1 89 
1 90 
1 91 
1 92 
1 93 
1 94 
1 95 
1 96 
1 97 
1 98 
1 99 
1 100 
1 101 
1 102 
1 103 
1 104 
1 105 
1 106 
1 107 
1 108 
1 109 
1 110 
1 111 
1 112 
1 113 
1 114 
1 115 
1 116 
1 117 
1 118 
1 119 
1 120 
1 121 
1 122 
1 123 
1 124 
1 125 
1 126 
1 127 
1 128 
1 129 
1 130 
1 131 
1 132 
1 133 
1 134 
1 135 
1 136 
1 137 
1 138 
1 139 
1 140 
1 141 
1 142 
1 143 
1 144 
1 145 
1 146 
1 147 
1 148 
1 149 
1 150 
1 151 
1 152 
1 153 
1 154 
1 155 
1 156 
1 157 
1 158 
1 159 
1 160 
1 161 
1 162 
1 163 
1 164 
1 165 
1 166 
1 167 
1 168 
1 169 
1 170 
1 171 
1 172 
1 173 
1 174 
1 175 
1 176 
1 177 
1 178 
1 179 
1 180 
1 181 
1 182 
1 183 
1 184 
1 185 
1 186 
1 187 
1 188 
1 189 
1 190 
1 191 
1 192 
1 193 
1 194 
1 195 
1 196 
1 197 
1 198 
1 199 
1 200 
1 201 
1 202 
1 203 
1 204 
1 205 
1 206 
1 207 
1 208 
1 209 
1 210 
1 211 
1 212 
1 213 
1 214 
1 215 
1 216 
1 217 
1 218 
1 219 
1 220 
1 221 
1 222 
1 223 
1 224 
1 225 
1 226 
1 227 
1 228 
1 229 
1 230 
1 231 
1 232 
1 233 
1 234 
1 235 
1 236 
1 237 
1 238 
1 239 
1 240 
1 241 
1 242 
1 243 
1 244 
1 245 
1 246 
1 247 
1 248 
1 249 
1 250 
1 251 
1 252 
1 253 
1 254 
1 255 
1 256 
1 257 
1 258 
1 259 
1 260 
1 261 
1 262 
1 263 
1 264 
1 265 
1 266 
1 267 
1 268 
1 269 
1 270 
1 271 
1 272 
1 273 
1 274 
1 275 
1 276 
1 277 
1 278 
1 279 
1 280 
1 281 
1 282 
1 283 
1 284 
1 285 
1 286 
1 287 
1 288 
1 289 
1 290 
1 291 
1 292 
1 293 
1 294 
1 295 
1 296 
1 297 
1 298 
1 299 
1 300 
1 301 
1 302 
1 303 
1 304 
1 305 
1 306 
1 307 
1 308 
1 309 
1 310 
1 311 
1 312 
1 313 
1 314 
1 315 
1 316 
1 317 
1 318 
1 319 
1 320 
1 321 
1 322 
1 323 
1 324 
1 325 
1 326 
1 327 
1 328 
1 329 
1 330 
1 331 
1 332 
1 333 
1 334 
1 335 
1 336 
1 337 
1 338 
1 339 
1 340 
1 341 
1 342 
1 343 
1 344 
1 345 
1 346 
1 347 
1 348 
1 349 
1 350 
1 351 
1 352 
1 353 
1 354 
1 355 
1 356 
1 357 
1 358 
1 359 
1 360 
1 361 
1 362 
1 363 
1 364 
1 365 
1 366 
1 367 
1 368 
1 369 
1 370 
1 371 
1 372 
1 373 
1 374 
1 375 
1 376 
1 377 
1 378 
1 379 
1 380 
1 381 
1 382 
1 383 
1 384 
1 385 
1 386 
1 387 
1 388 
1 389 
1 390 
1 391 
1 392 
1 393 
1 394 
1 395 
1 396 
1 397 
1 398 
1 399 
1 400 
1 401 
1 402 
1 403 
1 404 
1 405 
1 406 
1 407 
1 408 
1 409 
1 410 
1 411 
1 412 
1 413 
1 414 
1 415 
1 416 
1 417 
1 418 
1 419 
1 420 
1 421 
1 422 
1 423 
1 424 
1 425 
1 426 
1 427 
1 428 
1 429 

POINT_DATA 430
FIELD FieldData 7
id 1 430 int
56 9 30 16 34 19 31 2 24 
26 68 3 199 32 6 33 10 22 
207 60 23 7 1 13 54 38 5 
21 11 28 40 57 196 36 42 27 
101 48 41 108 58 88 50 29 45 
79 87 14 99 83 15 69 18 49 
70 46 72 85 43 8 4 52 12 
51 17 35 93 44 92 67 84 125 
112 100 64 156 65 73 59 20 126 
76 104 62 61 47 39 174 96 166 
63 116 55 75 130 147 74 94 111 
109 114 122 71 82 37 25 103 158 
162 142 133 134 121 150 90 148 118 
95 154 81 163 89 78 128 53 97 
187 143 98 66 110 120 167 175 144 
132 177 136 141 77 145 105 80 140 
91 113 124 86 165 123 155 139 127 
164 138 157 176 170 117 153 146 161 
178 131 183 129 204 191 149 135 193 
152 115 172 102 180 137 169 182 171 
160 252 181 230 192 214 245 106 228 
200 185 186 274 119 421 425 429 407 
422 430 212 427 406 428 420 423 426 
220 419 184 408 424 416 414 218 205 
217 258 219 168 415 227 221 190 226 
198 409 233 197 247 223 206 208 271 
257 260 215 216 255 179 270 189 225 
188 253 248 159 235 265 229 240 244 
254 243 238 418 151 237 262 278 275 
211 202 268 272 259 231 242 269 213 
210 201 107 289 224 279 276 277 203 
264 194 288 209 222 232 267 173 195 
251 286 239 249 287 236 266 246 284 
234 241 273 256 285 250 263 261 282 
290 280 283 281 302 297 294 299 295 
300 293 298 292 291 314 296 301 313 
315 309 312 308 306 311 310 303 304 
307 327 305 321 324 326 322 328 317 
318 319 320 325 334 316 323 335 332 
333 331 339 340 330 329 337 336 338 
344 345 352 346 350 347 343 351 349 
341 342 353 348 366 357 363 365 358 
354 356 362 359 364 355 360 376 371 
361 377 375 368 373 379 367 369 378 
374 370 372 389 380 387 390 388 391 
383 386 384 385 381 392 382 394 397 
402 403 400 395 398 401 396 404 399 
393 413 405 412 417 410 411 
type 1 430 int
1 1 1 1 1 1 1 1 1 
1 1 1 1 1 1 1 1 1 
1 1 1 1 1 1 1 1 1 
1 1 1 1 1 1 1 1 1 
1 1 1 1 1 1 1 1 1 
1 1 1 1 1 1 1 1 1 
1 1 1 1 1 1 1 1 1 
1 1 1 1 1 1 1 1 1 
1 1 1 1 1 1 1 1 1 
1 1 1 1 1 1 1 1 1 
1 1 1 1 1 1 1 1 1 
1 1 1 1 1 1 1 1 1 
1 1 1 1 1 1 1 1 1 
1 1 1 1 1 1 1 1 1 
1 1 1 1 1 1 1 1 1 
1 1 1 1 1 1 1 1 1 
1 1 1 1 1 1 1 1 1 
1 1 1 1 1 1 1 1 1 
1 1 1 1 1 1 1 1 1 
1 1 1 1 1 1 1 1 1 
1 1 1 1 1 1 1 1 1 
1 1 1 1 1 1 1 1 1 
1 1 1 1 1 1 1 1 1 
1 1 1 1 1 1 1 1 1 
1 1 1 1 1 1 1 1 1 
1 1 1 1 1 1 1 1 1 
1 1 1 1 1 1 1 1 1 
1 1 1 1 1 1 1 1 1 
1 1 1 1 1 1 1 1 1 
1 1 1 1 1 1 1 1 1 
1 1 1 1 1 1 1 1 1 
1 1 1 1 1 1 1 1 1 
1 1 1 1 1 1 1 1 1 
1 1 1 1 1 1 1 1 1 
1 1 1 1 1 1 1 1 1 
1 1 1 1 1 1 1 1 1 
1 1 1 1 1 1 1 1 1 
1 1 1 1 1 1 1 1 1 
1 1 1 1 1 1 1 1 1 
1 1 1 1 1 1 1 1 1 
1 1 1 1 1 1 1 1 1 
1 1 1 1 1 1 1 1 1 
1 1 1 1 1 1 1 1 1 
1 1 1 1 1 1 1 1 1 
1 1 1 1 1 1 1 1 1 
1 1 1 1 1 1 1 1 1 
1 1 1 1 1 1 1 1 1 
1 1 1 1 1 1 1 
i 3 430 int
0 0 0 0 0 0 0 0 0 
0 0 0 0 0 0 0 0 0 
0 0 0 0 0 0 0 0 0 
0 0 0 0 0 0 0 0 0 
0 0 0 0 0 0 0 0 0 
0 0 0 0 0 0 0 0 0 
0 0 0 0 0 0 0 0 0 
0 0 0 0 0 0 0 0 0 
0 0 0 0 0 0 0 0 0 
0 0 0 0 0 0 0 0 0 
0 0 0 0 0 0 0 0 0 
0 0 0 0 0 0 0 0 0 
0 0 0 0 0 0 0 0 0 
0 0 0 0 0 0 0 0 0 
0 0 0 0 0 0 0 0 0 
0 0 0 0 0 0 0 0 0 
0 0 0 0 0 0 0 0 0 
0 0 0 0 0 0 0 0 0 
0 0 0 0 0 0 0 0 0 
0 0 0 0 0 0 0 0 0 
0 0 0 0 0 0 0 0 0 
0 0 0 0 0 0 0 0 0 
0 0 0 0 0 0 0 0 0 
0 0 0 0 0 0 0 0 0 
0 0 0 0 0 0 0 0 0 
0 0 0 0 0 0 0 0 0 
0 0 0 0 0 0 0 0 0 
0 0 0 0 0 0 0 0 0 
0 0 0 0 0 0 0 0 0 
0 0 0 0 0 0 0 0 0 
0 0 0 0 0 0 0 0 0 
0 0 0 0 0 0 0 0 0 
0 0 0 0 0 0 0 0 0 
0 0 0 0 0 0 0 0 0 
0 0 0 0 0 0 0 0 0 
0 0 0 0 0 0 0 0 0 
0 0 0 0 0 0 0 0 0 
0 0 0 0 0 0 0 0 0 
0 0 0 0 0 0 0 0 0 
0 0 0 0 0 0 0 0 0 
0 0 0 0 0 0 0 0 0 
0 0 0 0 0 0 0 0 0 
0 0 0 0 0 0 0 0 0 
0 0 0 0 0 0 0 0 0 
0 0 0 0 0 0 0 0 0 
0 0 0 0 0 0 0 0 0 
0 0 0 0 0 0 0 0 0 
0 0 0 0 0 0 0 0 0 
0 0 0 0 0 0 0 0 0 
0 0 0 0 0 0 0 0 0 
0 0 0 0 0 0 0 0 0 
0 0 0 0 0 0 0 0 0 
0 0 0 0 0 0 0 0 0 
0 0 0 0 0 0 0 0 0 
0 0 0 0 0 0 0 0 0 
0 0 0 0 0 0 0 0 0 
0 0 0 0 0 0 0 0 0 
0 0 0 0 0 0 0 0 0 
0 0 0 0 0 0 0 0 0 
0 0 0 0 0 0 0 0 0 
0 0 0 0 0 0 0 0 0 
0 0 0 0 0 0 0 0 0 
0 0 0 0 0 0 0 0 0 
0 0 0 0 0 0 0 0 0 
0 0 0 0 0 0 0 0 0 
0 0 0 0 0 0 0 0 0 
0 0 0 0 0 0 0 0 0 
0 0 0 0 0 0 0 0 0 
0 0 0 0 0 0 0 0 0 
0 0 0 0 0 0 0 0 0 
0 0 0 0 0 0 0 0 0 
0 0 0 0 0 0 0 0 0 
0 0 0 0 0 0 0 0 0 
0 0 0 0 0 0 0 0 0 
0 0 0 0 0 0 0 0 0 
0 0 0 0 0 0 0 0 0 
0 0 0 0 0 0 0 0 0 
0 0 0 0 0 0 0 0 0 
0 0 0 0 0 0 0 0 0 
0 0 0 0 0 0 0 0 0 
0 0 0 0 0 0 0 0 0 
0 0 0 0 0 0 0 0 0 
0 0 0 0 0 0 0 0 0 
0 0 0 0 0 0 0 0 0 
0 0 0 0 0 0 0 0 0 
0 0 0 0 0 0 0 0 0 
0 0 0 0 0 0 0 0 0 
0 0 0 0 0 0 0 0 0 
0 0 0 0 0 0 0 0 0 
0 0 0 0 0 0 0 0 0 
0 0 0 0 0 0 0 0 0 
0 0 0 0 0 0 0 0 0 
0 0 0 0 0 0 0 0 0 
0 0 0 0 0 0 0 0 0 
0 0 0 0 0 0 0 0 0 
0 0 0 0 0 0 0 0 0 
0 0 0 0 0 0 0 0 0 
0 0 0 0 0 0 0 0 0 
0 0 0 0 0 0 0 0 0 
0 0 0 0 0 0 0 0 0 
0 0 0 0 0 0 0 0 0 
0 0 0 0 0 0 0 0 0 
0 0 0 0 0 0 0 0 0 
0 0 0 0 0 0 0 0 0 
0 0 0 0 0 0 0 0 0 
0 0 0 0 0 0 0 0 0 
0 0 0 0 0 0 0 0 0 
0 0 0 0 0 0 0 0 0 
0 0 0 0 0 0 0 0 0 
0 0 0 0 0 0 0 0 0 
0 0 0 0 0 0 0 0 0 
0 0 0 0 0 0 0 0 0 
0 0 0 0 0 0 0 0 0 
0 0 0 0 0 0 0 0 0 
0 0 0 0 0 0 0 0 0 
0 0 0 0 0 0 0 0 0 
0 0 0 0 0 0 0 0 0 
0 0 0 0 0 0 0 0 0 
0 0 0 0 0 0 0 0 0 
0 0 0 0 0 0 0 0 0 
0 0 0 0 0 0 0 0 0 
0 0 0 0 0 0 0 0 0 
0 0 0 0 0 0 0 0 0 
0 0 0 0 0 0 0 0 0 
0 0 0 0 0 0 0 0 0 
0 0 0 0 0 0 0 0 0 
0 0 0 0 0 0 0 0 0 
0 0 0 0 0 0 0 0 0 
0 0 0 0 0 0 0 0 0 
0 0 0 0 0 0 0 0 0 
0 0 0 0 0 0 0 0 0 
0 0 0 0 0 0 0 0 0 
0 0 0 0 0 0 0 0 0 
0 0 0 0 0 0 0 0 0 
0 0 0 0 0 0 0 0 0 
0 0 0 0 0 0 0 0 0 
0 0 0 0 0 0 0 0 0 
0 0 0 0 0 0 0 0 0 
0 0 0 0 0 0 0 0 0 
0 0 0 0 0 0 0 0 0 
0 0 0 0 0 0 0 0 0 
0 0 0 0 0 0 0 0 0 
0 0 0 0 0 0 0 0 0 
0 0 0 
v 3 430 double
-1.47446 -0.149743 -0.654843 -1.29224 -0.132834 -0.543929 -1.09999 0.0560349 -0.460801 
-1.18232 0.00277318 -0.511061 -1.24129 -0.198537 -0.437711 -1.2611 -0.066365 -0.817026 
-1.16105 0.127039 -0.443478 -1.03755 -0.225566 -0.900877 -1.30067 -0.131965 -0.276853 
-1.13189 0.138458 -0.421596 -1.15022 0.00941914 -0.469372 -1.10564 0.178239 -0.4782 
-0.480711 0.244091 -0.252805 -1.02963 0.136125 -0.440483 -0.841613 0.0581462 -0.353678 
-0.925237 -0.138437 -0.357078 -0.80841 -0.0599907 -0.326572 -0.967691 0.0498245 -0.402192 
-0.548677 -0.0777582 -0.239731 -0.975412 -0.114978 -0.583797 -0.830185 -0.0114498 -0.355731 
-0.935778 -0.0513384 -0.43135 -0.988132 0.0331099 -0.409348 -0.859317 0.0298988 -0.354137 
-0.77578 0.121111 -0.32992 -1.18523 0.291004 -0.325929 -0.997657 0.0820168 -0.417059 
-0.951548 0.0940087 -0.396443 -0.883048 0.176158 -0.22247 -0.940583 0.145042 -0.380625 
-0.819531 -0.0394779 -0.344158 -0.858154 -0.0296247 -0.360531 -0.874506 -0.348042 -0.596363 
-0.883982 -0.0821962 -0.694049 -0.790787 -0.00238376 -0.351487 -1.09976 0.114049 -0.752787 
-0.835405 -0.00497924 -0.393658 -0.834306 0.144575 -0.327558 -0.902563 0.0687937 -0.367232 
-1.12534 -0.0807433 -0.407195 -1.07607 -0.229822 -0.359999 -0.92258 -0.0894552 -0.655741 
-0.669775 -0.0309005 -0.27416 -0.747914 -0.0207454 -0.307501 -0.754056 -0.0086126 -0.367218 
-1.09893 -0.212237 -0.733977 -0.657625 -0.0227419 -0.285507 -0.761148 -2.5528e-05 -0.331341 
-1.06261 -0.0188627 -0.419519 -0.98836 -0.344412 -0.348434 -0.69208 -0.0597702 -0.284183 
-0.468339 -0.0094755 -0.20025 -0.72455 0.0357771 -0.296407 -0.877023 -0.0318021 -0.387521 
-0.649056 0.0397873 -0.339995 -0.712772 -0.0170001 -0.550788 -0.972308 0.191378 -0.420594 
-0.675871 0.0854989 -0.257554 -0.786078 0.0832164 -0.311751 -0.889146 -0.00475043 -0.359875 
-0.898993 -0.0563482 -0.366903 -0.686627 -0.10273 -0.332848 -0.615758 -0.101779 -0.253457 
-0.674439 0.0249617 -0.260379 -0.728431 -0.07057 -0.300991 -0.723575 -0.0975257 -0.309573 
-0.849589 -0.0765892 -0.402623 -0.816769 -0.0931759 -0.350809 -0.955247 0.0648668 -0.432812 
-0.897848 -0.0980169 -0.349886 -0.70585 -0.0644416 -0.42867 -0.843442 0.0496385 -0.35425 
-0.681571 -0.106664 -0.398423 -0.631047 -0.0412634 -0.329602 -0.715605 -0.0496323 -0.304112 
-0.671296 -0.0225493 -0.29401 -0.57061 0.0227589 -0.226049 -0.584094 0.0716722 -0.222348 
-0.828515 0.0893832 -0.294704 -0.813087 0.118088 -0.382225 -1.07766 -0.276287 -0.0666241 
-0.845796 -0.0730003 -0.325718 -0.848499 -0.10501 -0.328339 -0.927135 -0.238241 -0.33514 
-0.587686 -0.230701 -0.357628 -0.745377 0.00522319 -0.315819 -0.800003 -0.123048 -0.33027 
-0.868748 -0.0149198 -0.366923 -0.873501 -0.165201 -0.474888 -0.795861 -0.116299 -0.306518 
-0.88379 0.00919005 -0.346764 -0.866618 -0.175032 -0.406626 -0.641053 -0.0607941 -0.051701 
-0.89569 0.230183 -0.442131 -1.01495 -0.000948847 -0.380651 -0.881561 0.0968843 -0.384041 
-0.756217 -0.0579054 -0.271714 -0.715937 -0.0445968 -0.295372 -0.601582 -0.0572196 -0.200813 
-0.990767 -0.0194562 -0.494318 -0.85231 0.201727 -0.419084 -0.967222 0.0163124 -0.578684 
-0.792611 0.0948004 -0.330143 -0.647344 0.0511059 -0.318051 -0.789176 -0.0267404 -0.333395 
-0.700196 0.0543744 -0.296485 -0.725233 -0.103071 -0.376184 -0.730797 -0.011959 -0.309223 
-0.814561 -0.159827 -0.805932 -0.962735 -0.0182138 -0.370436 -1.11782 -0.0187227 -0.348616 
-1.18607 -0.0532701 -0.413998 -0.536354 0.0295988 -0.230658 -0.693785 0.0718949 -0.265843 
-0.567463 -0.10662 -0.230751 -1.13829 0.114939 -0.231495 -0.605584 -0.0230428 -0.348481 
-0.65978 -0.0115668 -0.280857 -0.704364 0.0112949 -0.290788 -0.748816 -0.254089 -0.190291 
-0.818323 -0.248775 -0.34866 -0.580375 -0.0448002 -0.243761 -0.534712 0.0064333 -0.227171 
-0.590349 0.0341746 -0.247264 -0.789769 -0.0534328 -0.217291 -0.618302 0.0334962 -0.258919 
-0.585143 -0.0158345 -0.0922365 -0.871816 0.0764258 -0.295909 -0.646601 0.0874124 -0.28306 
-0.497768 -0.00495782 -0.210896 -0.562183 -0.0326004 -0.22237 -0.712166 -0.108193 -0.276858 
-0.844651 0.0929869 -0.400267 -0.803401 0.00465246 -0.336135 -0.722111 0.202797 -0.339279 
-0.963723 0.268565 -0.683227 -0.890587 0.29075 -0.662908 -0.768199 0.00700461 -0.451518 
-0.391493 0.120436 -0.164672 -0.774557 0.0466027 -0.602332 -0.96655 -0.0370762 -0.352822 
-0.529995 0.0491406 -0.215409 -0.48188 0.127989 -0.214283 -0.824238 0.106116 -0.41891 
-0.785109 0.0914827 0.00328757 -0.440147 0.0811582 -0.160422 -0.681831 0.299443 -0.178097 
-0.627849 -0.0677328 -0.23468 -0.480709 -0.27091 -0.17839 -0.552811 0.0334655 -0.236315 
-0.536294 -0.0681161 -0.229301 -0.883537 0.300809 -0.134799 -0.559671 -0.0572378 -0.239465 
-0.482951 -0.0516515 -0.201293 -0.768419 -0.120187 -0.336153 -0.67007 -0.0910963 -0.331599 
-0.832266 -0.179886 -0.679395 -0.616183 0.146564 -0.397026 -0.573408 0.0496568 -0.239465 
-0.662004 0.109338 -0.480765 -0.836593 0.150206 -0.421652 -0.682104 0.0418589 -0.409649 
-0.465496 0.0126744 -0.193405 -0.430929 0.0254891 -0.179472 -0.697866 0.320695 -0.301586 
-0.488742 -0.117456 -0.616693 -0.629556 0.205163 -0.557855 -0.561686 0.136233 -0.323436 
-0.657325 0.106005 -0.276492 -0.48143 0.00189296 -0.67943 -0.307833 0.0560025 -0.131703 
-0.542067 0.0522834 -0.337581 -0.344593 0.0689807 -0.202913 -0.463834 0.144479 -0.215605 
-0.56573 -0.0456506 -0.230896 -0.508494 -0.154818 -0.265589 -0.718017 -0.258545 -0.613636 
-0.277757 -0.0746898 -0.041011 -0.720465 -0.294153 -0.549073 -0.578444 0.00419919 -0.254837 
-0.430859 0.0197858 -0.176868 -0.673022 -0.0259962 -0.281054 -0.717043 -0.319756 -0.580874 
-0.795036 -0.0644636 -0.219573 -0.89999 0.0184928 -0.521138 -0.577292 -0.263269 -0.249698 
-0.922909 -0.225532 -0.741642 -0.526509 -0.00154417 -0.155007 -0.625357 0.0568768 -0.22926 
-0.720911 -0.321481 -0.500799 -0.720821 -0.261927 -0.61654 -0.747568 0.139546 -0.552324 
-1.08057 0.0233318 -0.765738 -0.460338 -0.0171937 -0.183026 0 0 -1.00829 
0 0 -1.03998 0 0 -1.0698 0 0 -1.13847 
0 0 -1.03487 0 0 -1.07078 -0.439683 -0.0670195 -0.171082 
0 0 -1 0 0 -1.11267 0 0 -1.03978 
0 0 -1.01996 0 0 -1 0 0 -1.03448 
-0.535335 0.0607362 -0.197892 0 0 -1.06735 -0.230857 0.109885 -0.0907989 
0 0 -1.1211 0 0 -1.05234 0 0 -1.10188 
0 0 -1.09354 -0.742814 0.222019 -0.227793 -0.470641 0.0410842 -0.198539 
-0.347152 0.120902 -0.205929 -0.580435 0.119228 -0.258911 -0.637857 0.0176818 -0.227432 
-0.42069 0.10645 -0.172677 0 0 -1.1366 -0.823508 0.045392 -0.237226 
-0.451172 -0.110375 -0.27693 -0.505406 0.0498532 -0.0763602 -0.36058 0.181807 -0.0163602 
-0.758237 0.0215414 -0.406398 0 0 -1.14857 -0.988333 0.0898184 -0.239257 
-0.479103 -0.0316229 -0.227223 -0.489907 -0.0969583 -0.0411069 -0.582412 0.0903887 -0.18741 
-0.72347 -0.286304 -0.479867 -0.549972 -0.213115 -0.451146 -1.09746 0.110945 -0.32318 
-1.0082 -0.40069 -0.474389 -0.781434 -0.26033 -0.306793 -0.641412 -0.00813171 -0.291627 
-0.628509 0.306556 -0.39745 -0.306056 -0.204951 0.0894709 -0.250143 -0.00544985 -0.169155 
-0.748454 0.179672 0.110566 -0.703134 0.0777423 -0.397312 -0.300244 -0.0284977 -0.368587 
-0.721806 0.26499 -0.583878 -0.415832 0.120077 0.0230032 -0.0860017 0.0380073 -0.379893 
-0.588376 -0.269288 -0.632099 -0.438389 0.0927657 0.115099 -0.915968 0.437587 -0.143234 
-0.428265 -0.0403843 -0.16006 -0.549902 -0.28625 -0.424886 -0.964192 -0.148545 0.126681 
-0.510048 -0.177729 -0.076319 -0.841025 -0.222248 -0.25603 -0.652913 0.287751 -0.208357 
0 0 -1.12503 -0.37951 -0.0449672 -0.215985 -0.506742 0.161114 -0.158725 
-0.740401 0.481556 0.00127002 -0.59179 0.470585 0.144519 -0.743751 0.2027 0.0790037 
-0.570975 0.350351 -0.50951 -0.737562 0.057558 -0.547697 -0.876902 -0.00608837 -0.0349699 
0.114334 0.0556211 0.0570902 -0.75152 0.140284 0.00415257 -0.963516 -0.267767 0.131068 
-0.392418 0.17105 -0.13819 -0.55643 -0.147641 -0.82437 -0.28027 0.171262 -0.118081 