# vtk DataFile Version 4.0
Generated by LIGGGHTS
ASCII
DATASET POLYDATA
POINTS 480 float
-0.327776 0.0102045 -0.243778 -0.299284 -0.00468766 -0.23217 -0.275375 -0.00122471 -0.221117 
-0.266624 -0.0214992 -0.216488 -0.26341 -0.0125341 -0.216467 -0.275179 -0.0440374 -0.212807 
-0.267941 0.039541 -0.211959 -0.249908 -0.00660182 -0.210173 -0.242055 -0.00617005 -0.207964 
-0.252456 -0.0336239 -0.20655 -0.255451 0.0401408 -0.205581 -0.228526 -0.0195107 -0.200929 
-0.227823 -0.00896472 -0.201702 -0.230512 -0.00397063 -0.203037 -0.227448 -0.00499598 -0.201855 
-0.224783 4.85598e-05 -0.200748 -0.230063 0.00573101 -0.202879 -0.354955 0.0707013 -0.202624 
-0.221895 -0.0122622 -0.198878 -0.219908 -0.0059584 -0.19862 -0.222495 0.00814723 -0.198548 
-0.219735 0.0125279 -0.198036 -0.239629 0.0201116 -0.199949 -0.2292 0.0199816 -0.199976 
-0.217695 0.0200888 -0.196251 -0.216952 -0.0057713 -0.195922 -0.211175 -0.00308671 -0.195023 
-0.230547 0.0117192 -0.194205 -0.212763 0.0196688 -0.193175 -0.256281 0.0624716 -0.195629 
-0.230151 -0.0585035 -0.188262 -0.217269 -0.05436 -0.185444 -0.209805 -0.0466892 -0.185849 
-0.205952 0.0274155 -0.188834 -0.203384 0.00316336 -0.190627 -0.203449 0.0164897 -0.190708 
-0.204046 -0.0680537 -0.171154 -0.20139 0.0109625 -0.189336 -0.197735 -0.00991716 -0.189018 
-0.0578751 -3.04216e-05 -0.127506 -0.0482279 -0.0173354 -0.12535 -0.0655349 -0.00465478 -0.127036 
-0.058115 0.024982 -0.127599 -0.191312 0.00514767 -0.186654 -0.193888 0.0117368 -0.186117 
-0.197579 0.0249842 -0.186959 -0.0834344 0.00387314 -0.128895 -0.183553 -0.00345481 -0.182195 
-0.1829 0.00184327 -0.183089 -0.185638 0.00431851 -0.184292 -0.179038 0.00415128 -0.181515 
-0.181992 0.0145984 -0.181919 -0.186576 0.0165454 -0.182571 -0.185257 -0.0353789 -0.179385 
-0.173932 -0.00565823 -0.179209 -0.178784 -0.00071096 -0.181269 -0.173928 0.0013502 -0.179324 
-0.1723 0.0124331 -0.178001 -0.179531 0.0173452 -0.180253 -0.179522 0.0142294 -0.177517 
-0.182525 0.0323027 -0.179168 -0.199009 0.0490228 -0.18071 -0.187925 -0.0389306 -0.178549 
-0.173858 -0.0189962 -0.176997 -0.16649 -0.0141673 -0.174489 -0.173147 -0.0102127 -0.177636 
-0.163264 -0.0085436 -0.174255 -0.162308 -0.00563708 -0.174398 -0.166764 0.000692055 -0.175119 
-0.16175 0.00502018 -0.174172 -0.177029 0.0254484 -0.178257 -0.172687 -0.0356287 -0.173135 
-0.155751 -0.0106906 -0.171358 -0.153022 -0.00818142 -0.170334 -0.168309 -0.00410254 -0.172573 
-0.159253 -0.00366152 -0.172038 -0.155057 -0.00331982 -0.171387 -0.183594 0.000936628 -0.175339 
-0.175453 0.0403967 -0.172881 -0.181852 0.0538288 -0.171798 -0.0517248 0.00181184 -0.126708 
-0.174588 -0.04888 -0.170872 -0.167224 -0.0425784 -0.168993 -0.163025 -0.0386576 -0.169508 
-0.150768 -0.0100346 -0.169271 -0.146499 -0.00844083 -0.167578 -0.159421 -0.00821179 -0.171879 
-0.145075 -0.00452196 -0.167182 -0.166443 -0.00198924 -0.167921 -0.150257 -0.0038371 -0.168313 
-0.174909 0.00242408 -0.171977 -0.162342 0.000997825 -0.172912 -0.153392 0.000134707 -0.169581 
-0.148514 0.000560471 -0.167776 -0.158596 0.00433218 -0.172584 -0.150093 0.00707786 -0.168072 
-0.145587 0.00736201 -0.1672 -0.169324 0.0439231 -0.170356 -0.160846 -0.0410374 -0.166768 
-0.146459 -0.019217 -0.166616 -0.146736 -0.0226494 -0.1631 -0.148821 -0.0136893 -0.167116 
-0.163431 -0.00722106 -0.166397 -0.163593 -0.00323914 -0.167395 -0.154193 0.00142186 -0.162869 
-0.146866 0.0106019 -0.167167 -0.14938 0.017947 -0.166735 -0.143606 0.0158751 -0.165692 
-0.141436 0.0191211 -0.164431 -0.139521 -0.0212159 -0.163428 -0.138491 -0.0175186 -0.163449 
-0.131881 -0.0153567 -0.160915 -0.13805 -0.0113899 -0.162756 -0.133767 -0.00694238 -0.162297 
-0.138503 0.00604802 -0.164143 -0.141402 0.0120125 -0.163127 -0.129373 0.00927901 -0.160214 
-0.159368 0.0158595 -0.164729 -0.133557 0.0152047 -0.161593 -0.130717 0.0158784 -0.160342 
-0.130906 -0.0227661 -0.158444 -0.127139 -0.0160659 -0.157548 -0.127011 -0.00537 -0.159434 
-0.188674 -0.00137552 -0.160099 -0.128077 -0.00261535 -0.159973 -0.130658 0.00113916 -0.160106 
-0.128467 0.0127415 -0.159349 -0.13182 0.0208064 -0.159007 -0.145529 -0.0592588 -0.155031 
-0.122461 -0.0349578 -0.15372 -0.122095 -0.0181885 -0.156485 -0.117536 -0.0150937 -0.153785 
-0.126425 -0.00788559 -0.157939 -0.1184 -0.00704129 -0.154712 -0.114219 0.00328858 -0.154042 
-0.119765 0.00489835 -0.155406 -0.118042 0.00332588 -0.152158 -0.111055 0.00530048 -0.152825 
-0.118137 0.00947996 -0.155364 -0.118116 0.0158237 -0.154522 -0.127985 0.0196636 -0.155026 
-0.12106 0.025438 -0.154979 -0.145154 -0.0685978 -0.150226 -0.128828 -0.0508787 -0.149946 
-0.12011 -0.042201 -0.150829 -0.127232 -0.0113441 -0.156137 -0.11192 -0.0047337 -0.152123 
-0.106536 -0.00568984 -0.150896 -0.119247 -0.00453339 -0.151401 -0.105408 -0.00190187 -0.150331 
-0.11191 0.000764573 -0.151576 -0.108354 0.00824173 -0.150419 -0.11327 0.0155921 -0.153034 
-0.107247 0.0222377 -0.149683 -0.114589 0.026077 -0.151071 -0.119531 -0.0537787 -0.146963 
-0.0991303 -0.0254067 -0.144754 -0.10181 -0.018172 -0.146554 -0.100213 -0.00673623 -0.146705 
-0.100989 -0.00327092 -0.148607 -0.113651 -0.00110842 -0.14736 -0.0978272 -0.00240719 -0.147275 
-0.117071 -0.00228728 -0.154412 -0.097066 0.00330408 -0.145827 -0.094149 0.000519852 -0.14514 
-0.110033 0.00452948 -0.147525 -0.0996565 0.00786258 -0.146798 -0.103676 0.014141 -0.148017 
-0.126849 0.0232543 -0.149948 -0.107051 0.0368525 -0.146837 -0.12875 0.0628249 -0.146746 
-0.0981295 -0.0352223 -0.143562 -0.0959666 -0.0289732 -0.1429 -0.101885 -0.00108162 -0.141935 
-0.0908531 -0.00173718 -0.143169 -0.0948929 0.00126219 -0.138408 -0.114419 0.0040554 -0.147523 
-0.0928092 0.00320854 -0.145103 -0.0917218 0.0079991 -0.14347 -0.102328 0.015028 -0.144359 
-0.155878 0.0193251 -0.144707 -0.105246 0.043727 -0.144449 -0.0919326 -0.0307883 -0.140728 
-0.0838003 -0.00951934 -0.139968 -0.0920194 -0.00919579 -0.142705 -0.0810225 -0.00639031 -0.140054 
-0.0791869 -0.00448806 -0.138663 -0.0830192 -0.0025521 -0.139886 -0.0782529 -0.00120121 -0.138979 
-0.0779012 0.00196898 -0.13882 -0.0814231 0.00656551 -0.14024 -0.0784653 0.00543136 -0.139007 
-0.0857953 0.00863375 -0.140934 -0.0955852 0.0146473 -0.142424 -0.0808757 0.013814 -0.139504 
-0.0858999 0.0175777 -0.140223 -0.0939822 0.0252926 -0.143663 -0.0794649 -0.0252431 -0.137666 
-0.0791642 -0.0190475 -0.137209 -0.0738946 -0.0152923 -0.13653 -0.0734197 -0.0098485 -0.13557 
-0.0948874 -0.00333585 -0.140052 -0.0698008 0.00315139 -0.135401 -0.0747983 0.00298946 -0.136418 
-0.0682404 0.00776195 -0.134636 -0.1128 0.0111147 -0.140371 -0.0821941 0.0335437 -0.1372 
-0.0792516 -0.0450144 -0.133193 -0.07525 -0.0148914 -0.130831 -0.0647489 -0.0165368 -0.131447 
-0.0614049 -0.0137507 -0.131427 -0.0823093 -0.00743068 -0.134606 -0.0724115 -0.00773919 -0.132063 
-0.0632268 -0.00769901 -0.132476 -0.0619467 -0.0105529 -0.131473 -0.0868959 -0.00555556 -0.13803 
-0.0657327 -0.00456977 -0.132593 -0.0833954 -0.00118056 -0.13584 -0.0630107 -0.00160973 -0.132611 
-0.0677234 3.22246e-06 -0.133502 -0.082245 0.00453972 -0.13636 -0.0659936 0.00530835 -0.133736 
-0.062707 0.00664372 -0.132314 -0.101709 0.00835081 -0.139116 -0.076489 0.00916036 -0.135006 
-0.0604121 0.00831117 -0.131238 -0.0762775 0.0304539 -0.134311 -0.0883671 0.0580978 -0.131625 
-0.0553748 -0.00773528 -0.128069 -0.0577448 -0.00535689 -0.130239 -0.0556502 -0.00162907 -0.129054 
-0.0727679 0.00272708 -0.129317 -0.0623772 0.0021078 -0.131254 -0.0521272 0.00642904 -0.127815 
-0.0591193 0.0115558 -0.13058 -0.0908926 0.0194208 -0.131369 -0.0661735 0.0306487 -0.130789 
-0.0526034 0.0117906 -0.126756 -0.0577181 0.0075684 -0.126967 -0.0492323 -0.0146483 -0.126224 
-0.0614932 0.00290907 -0.12615 -0.0501333 -0.00752469 -0.125539 -0.0525154 0.0165543 -0.125168 
-0.055222 -0.0120693 -0.125485 -0.0497704 -0.0264195 -0.12401 -0.00708289 0.0112854 0.0510689 
-0.0346531 0.00651434 0.047129 -0.0726316 -0.0031996 -0.124013 -0.00437192 -0.0158774 0.049364 
-0.0198207 -0.00974077 0.0449205 -0.0424972 -0.00672768 -0.123739 -0.0457756 -0.00411592 -0.124156 
-0.0115665 -0.0335308 0.050335 -0.0296409 0.00549128 0.0511119 -0.0278976 0.0186818 0.0482762 
-0.0302628 0.0298152 0.0478693 -0.00787767 0.029374 0.051391 -0.0337467 -0.0346591 0.0522347 
-0.0459415 0.00904635 -0.123985 -0.0269024 0.0141667 0.0423261 -0.0579154 -0.0151074 -0.121119 
-0.0407716 -0.0154011 -0.120972 -0.0820753 -0.0133598 -0.123095 -0.0333891 0.0071378 0.0435421 
-0.0441767 -0.00261098 -0.117595 -0.034934 0.00320162 -0.120749 -0.0753102 0.00691004 -0.12354 
-0.0395507 0.0187415 -0.120656 -0.0380512 0.0234329 -0.119905 -0.0567235 0.0253553 -0.122867 
-0.0471316 0.0235658 -0.122426 -0.0399451 0.0269637 -0.120821 -0.0437573 0.0313485 -0.118005 
-0.0852922 0.0779666 -0.121981 -0.050692 -0.0445577 -0.117468 -0.0380372 -0.0274586 -0.116705 
-0.0455979 -0.0179145 -0.123301 -0.0403485 -0.023704 -0.12124 -0.0729473 -0.0106175 -0.118326 
-0.0510325 -0.0043575 -0.12048 -0.0439009 -0.00599591 -0.120626 -0.0339998 -0.00352114 -0.115921 
-0.07472 0.00293352 -0.119887 -0.0712717 0.000577129 -0.117346 -0.0493416 -0.00737047 -0.117729 
-0.0390066 -0.00290598 -0.115862 -0.0697858 2.46083e-05 -0.121468 -0.0327435 0.00764435 -0.11776 
-0.0397595 0.0135712 -0.120888 -0.035036 0.0248272 -0.11518 -0.0321852 0.0211796 -0.112073 
-0.0371792 0.0286955 -0.117815 -0.0386382 0.0269863 -0.112252 -0.049861 -0.0622269 -0.115482 
-0.0463789 -0.0262599 -0.11094 -0.0547531 -0.0185926 -0.110575 -0.0402739 -0.0168692 -0.110693 
-0.0474706 -0.0122094 -0.114735 -0.0594185 -0.00876797 -0.11642 -0.0289928 -0.00893506 -0.115121 
-0.0255518 -0.00625906 -0.116369 -0.0201009 -0.00803904 -0.114276 -0.0616769 -0.00497034 -0.115134 
-0.055258 -0.00250654 -0.113868 -0.0537586 0.00103825 -0.112398 -0.0395027 0.00310486 -0.113521 
-0.0360865 0.000732385 -0.114437 -0.0352939 0.00928808 -0.120529 -0.0369865 0.00307557 -0.118333 
-0.0976721 0.00611342 -0.115508 -0.0677467 0.00638194 -0.115896 -0.0559949 0.00599305 -0.11201 
-0.0280622 0.00827434 -0.11225 -0.0982346 0.0203169 -0.116225 -0.0423345 0.0257076 -0.114541 
-0.0291829 0.0302509 -0.115862 -0.0363494 -0.0256878 -0.107315 -0.0308506 -0.0200149 -0.113016 
-0.0418149 -0.0121654 -0.109628 -0.0328327 -0.00834026 -0.116915 -0.0170271 -0.0067193 -0.111954 
-0.0968303 -0.00322832 -0.112766 -0.01842 -0.00114243 -0.110492 -0.0428704 0.000637712 -0.110656 
-0.0476287 0.00492999 -0.110674 -0.0348064 0.00561075 -0.110884 -0.0168874 0.00780953 -0.112114 
-0.0157067 0.0126938 -0.111931 -0.0282414 0.012509 -0.117299 -0.0292512 0.0111241 -0.114781 
-0.0247177 0.0134769 -0.108867 -0.0212696 0.018284 -0.107907 -0.0574718 0.0223434 -0.111808 
-0.0139377 -0.0430536 -0.106861 -0.028922 -0.0237419 -0.114576 -0.0130374 -0.0219827 -0.10893 
-0.0363135 -0.0147551 -0.105348 -0.0307924 -0.0156267 -0.10645 -0.0510466 -0.0103766 -0.108479 
-0.0190574 -0.00960886 -0.105343 -0.0185766 0.00165503 -0.101776 -0.010957 0.00488105 -0.105456 
-0.0113346 0.0142093 -0.102998 -0.037253 0.0257708 -0.106736 -0.0142333 0.0276257 -0.102532 
-0.00679373 -0.0202226 -0.103275 -0.027845 0.00572462 -0.102479 -0.0298121 0.0197024 -0.104504 
-0.0310009 0.0263648 -0.104929 -0.0243261 -0.0215944 -0.114129 0.0186629 0.00504534 -0.0979995 
-0.0053651 -0.0241393 -0.10331 -0.0295151 -0.00878831 -0.0948147 -0.0250933 5.52728e-05 -0.114956 
-0.0135549 0.01737 -0.110658 -0.00636729 -0.0343081 -0.104965 -0.0025337 -0.0282435 -0.104738 
-0.0318304 -0.0245036 -0.108211 -0.00797231 -0.0174936 -0.103416 -0.00426265 -0.00806252 -0.102441 
-0.00209743 -0.0197497 -0.0991173 -0.0153561 0.00561382 -0.10212 -0.0300029 0.0166278 -0.0994819 
-0.0136513 0.0273893 -0.0987255 -0.032644 -0.0063197 -0.0967665 -0.00532413 0.00347482 -0.0947623 
-0.00315638 0.017114 -0.0925179 -0.0215522 -0.0188967 -0.0878929 -0.0196875 0.000933277 -0.0902881 
-0.00977287 0.0109784 -0.0890422 -0.0243451 0.0195956 -0.0891975 -0.0164984 0.0336061 -0.0874996 
-0.0168696 0.0180085 -0.0865847 -0.0135751 0.0240704 -0.0872177 -0.00832892 -0.0172649 -0.0829571 
-0.00858455 -0.00884288 -0.0780289 -0.00390427 -0.00527178 -0.0765546 -0.0310592 -0.00121585 -0.0761627 
-0.0162721 0.0114791 -0.0786636 -0.0184795 -0.0269407 -0.0755693 -0.00937081 0.0258081 -0.0740972 
-0.00665099 -0.0147089 -0.0698433 -0.0206177 -0.0113305 -0.0697319 -0.0123384 -0.0119647 -0.0697004 
-0.00639582 0.00662071 -0.071075 -0.0104872 0.0175218 -0.0689431 -0.00657095 -0.0222035 -0.0684151 
-0.0213451 -0.000776551 -0.0655131 -0.0079193 0.0298979 -0.0660774 -0.029518 -0.0259191 -0.0646503 
-0.0235714 -0.0119867 -0.061119 -0.0220216 -0.0115727 -0.0541082 -0.0321609 -0.00607507 -0.0524287 
-0.0299907 0.00855733 -0.0526389 -0.0077538 0.0171361 -0.0511984 -0.00221027 0.0186146 -0.0510718 
-0.0173855 -0.0338902 -0.0497973 -0.00676706 -0.00981008 -0.0496819 -0.00131466 0.00705789 -0.0496824 
-0.0311671 0.0123986 -0.0483729 -0.0107659 0.0283687 -0.0481856 -0.0183398 -0.0212097 -0.0446315 
-0.0223604 0.0276055 -0.0434181 -0.00517262 0.0323307 -0.0426612 -0.00399213 -0.0264375 -0.035671 
-0.0287336 -0.0143436 -0.036302 -0.0138788 -0.0162448 -0.0372253 -0.00452227 -8.57609e-05 -0.0363259 
-0.0232248 0.018953 -0.0360132 -0.0208051 -0.0257611 -0.0317009 -0.0318082 0.0208697 -0.0337285 
-0.00341211 0.0279138 -0.032297 -0.00154371 -0.0346722 -0.028027 -0.0239192 -0.011198 -0.0291844 
-0.00558275 -0.00455966 -0.0292581 -0.0345917 -0.0281976 -0.0241452 -0.0293509 -0.0255557 -0.0255597 
-0.0193685 0.0119819 -0.0269852 -0.0319573 -0.0211048 -0.0200568 -0.00861311 0.0156758 -0.0209432 
-0.0191536 0.0271245 -0.0237395 -0.0124901 0.0292455 -0.021408 -0.0184641 0.0346143 -0.0212946 
-0.0216218 -0.0306886 -0.0163935 -0.0188515 -0.0248569 -0.0181898 -0.0067008 0.0110709 -0.0184741 
-0.0255212 -0.0322233 -0.0144881 -0.0215899 -0.0111508 -0.0157817 -0.00801538 0.0199359 -0.0128365 
-0.0291051 0.026364 -0.0115682 -0.00957752 -0.023935 -0.00541372 -0.0143365 -0.0079604 -0.00815438 
-0.00353272 0.0202053 -0.00799838 -0.0136772 0.0221297 -0.0076409 -0.0109636 -0.0311008 -0.00286277 
-0.0194255 -0.0262921 -0.0028002 -0.0129094 -0.0188123 -0.00357351 -0.0267273 0.0202325 -0.00360157 
-0.00135906 -0.0285348 -0.000698606 -0.0293542 -0.0154504 0.00223317 -0.0144604 0.0146238 0.000973789 
-0.0147423 -0.00564426 0.00550986 -0.00986991 0.00120138 0.00415776 -0.0165007 0.0290903 0.00639075 
-0.0298384 -0.0303038 0.0101086 -0.011677 -0.0284877 0.0101513 -0.0102718 0.00457908 0.00677002 
-0.0312961 0.0169384 0.00833905 -0.000325902 -0.0296171 0.0139495 -0.00025791 -0.0162541 0.0137419 
-0.00247583 0.0215485 0.0110649 -0.00282712 0.00545747 0.0148517 -0.00105657 0.0183981 0.0174109 
-0.00180751 0.0338204 0.0148684 -0.00462244 -0.00933596 0.018899 -0.0181237 -0.00251957 0.0214007 
-0.0198718 -0.0194218 0.0218572 -0.0312886 -0.013967 0.0249212 -0.0120116 -0.010599 0.0225153 
-0.00101568 -0.00765357 0.0236283 -0.0290561 -0.00430439 0.0230926 -0.0139184 0.0334821 0.0230316 
-0.0258137 0.00190826 0.029005 -0.0297716 0.0219768 0.0278598 -0.0217046 0.022596 0.0260356 
-0.00392958 0.028377 0.0276483 -0.0252769 -0.0118968 0.0323134 -0.0256024 -0.0344097 0.0343733 
-0.018075 -0.0348859 0.0346667 -0.000358392 -0.033522 0.0364467 -0.0161376 -0.013045 0.0333303 
-0.00508037 -0.0105724 0.03669 -0.0189065 0.00370031 0.0333268 -0.0131504 0.0195227 0.0351192 
-0.027285 0.0339661 0.0333434 -0.0264186 -0.0226941 0.0375141 -0.00409419 -0.012465 0.0397326 
-0.0236813 0.00467646 0.038925 -0.0266756 0.00717374 0.0375252 -0.00122887 0.00667973 0.0436672 

VERTICES 480 960
1 0 
1 1 
1 2 
1 3 
1 4 
1 5 
1 6 
1 7 
1 8 
1 9 
1 10 
1 11 
1 12 
1 13 
1 14 
1 15 
1 16 
1 17 
1 18 
1 19 
1 20 
1 21 
1 22 
1 23 
1 24 
1 25 
1 26 
1 27 
1 28 
1 29 
1 30 
1 31 
1 32 
1 33 
1 34 
1 35 
1 36 
1 37 
1 38 
1 39 
1 40 
1 41 
1 42 
1 43 
1 44 
1 45 
1 46 
1 47 
1 48 
1 49 
1 50 
1 51 
1 52 
1 53 
1 54 
1 55 
1 56 
1 57 
1 58 
1 59 
1 60 
1 61 
1 62 
1 63 
1 64 
1 65 
1 66 
1 67 
1 68 
1 69 
1 70 
1 71 
1 72 
1 73 
1 74 
1 75 
1 76 
1 77 
1 78 
1 79 
1 80 
1 81 
1 82 
1 83 
1 84 
1 85 
1 86 
1 87 
1 88 
1 89 
1 90 
1 91 
1 92 
1 93 
1 94 
1 95 
1 96 
1 97 
1 98 
1 99 
1 100 
1 101 
1 102 
1 103 
1 104 
1 105 
1 106 
1 107 
1 108 
1 109 
1 110 
1 111 
1 112 
1 113 
1 114 
1 115 
1 116 
1 117 
1 118 
1 119 
1 120 
1 121 
1 122 
1 123 
1 124 
1 125 
1 126 
1 127 
1 128 
1 129 
1 130 
1 131 
1 132 
1 133 
1 134 
1 135 
1 136 
1 137 
1 138 
1 139 
1 140 
1 141 
1 142 
1 143 
1 144 
1 145 
1 146 
1 147 
1 148 
1 149 
1 150 
1 151 
1 152 
1 153 
1 154 
1 155 
1 156 
1 157 
1 158 
1 159 
1 160 
1 161 
1 162 
1 163 
1 164 
1 165 
1 166 
1 167 
1 168 
1 169 
1 170 
1 171 
1 172 
1 173 
1 174 
1 175 
1 176 
1 177 
1 178 
1 179 
1 180 
1 181 
1 182 
1 183 
1 184 
1 185 
1 186 
1 187 
1 188 
1 189 
1 190 
1 191 
1 192 
1 193 
1 194 
1 195 
1 196 
1 197 
1 198 
1 199 
1 200 
1 201 
1 202 
1 203 
1 204 
1 205 
1 206 
1 207 
1 208 
1 209 
1 210 
1 211 
1 212 
1 213 
1 214 
1 215 
1 216 
1 217 
1 218 
1 219 
1 220 
1 221 
1 222 
1 223 
1 224 
1 225 
1 226 
1 227 
1 228 
1 229 
1 230 
1 231 
1 232 
1 233 
1 234 
1 235 
1 236 
1 237 
1 238 
1 239 
1 240 
1 241 
1 242 
1 243 
1 244 
1 245 
1 246 
1 247 
1 248 
1 249 
1 250 
1 251 
1 252 
1 253 
1 254 
1 255 
1 256 
1 257 
1 258 
1 259 
1 260 
1 261 
1 262 
1 263 
1 264 
1 265 
1 266 
1 267 
1 268 
1 269 
1 270 
1 271 
1 272 
1 273 
1 274 
1 275 
1 276 
1 277 
1 278 
1 279 
1 280 
1 281 
1 282 
1 283 
1 284 
1 285 
1 286 
1 287 
1 288 
1 289 
1 290 
1 291 
1 292 
1 293 
1 294 
1 295 
1 296 
1 297 
1 298 
1 299 
1 300 
1 301 
1 302 
1 303 
1 304 
1 305 
1 306 
1 307 
1 308 
1 309 
1 310 
1 311 
1 312 
1 313 
1 314 
1 315 
1 316 
1 317 
1 318 
1 319 
1 320 
1 321 
1 322 
1 323 
1 324 
1 325 
1 326 
1 327 
1 328 
1 329 
1 330 
1 331 
1 332 
1 333 
1 334 
1 335 
1 336 
1 337 
1 338 
1 339 
1 340 
1 341 
1 342 
1 343 
1 344 
1 345 
1 346 
1 347 
1 348 
1 349 
1 350 
1 351 
1 352 
1 353 
1 354 
1 355 
1 356 
1 357 
1 358 
1 359 
1 360 
1 361 
1 362 
1 363 
1 364 
1 365 
1 366 
1 367 
1 368 
1 369 
1 370 
1 371 
1 372 
1 373 
1 374 
1 375 
1 376 
1 377 
1 378 
1 379 
1 380 
1 381 
1 382 
1 383 
1 384 
1 385 
1 386 
1 387 
1 388 
1 389 
1 390 
1 391 
1 392 
1 393 
1 394 
1 395 
1 396 
1 397 
1 398 
1 399 
1 400 
1 401 
1 402 
1 403 
1 404 
1 405 
1 406 
1 407 
1 408 
1 409 
1 410 
1 411 
1 412 
1 413 
1 414 
1 415 
1 416 
1 417 
1 418 
1 419 
1 420 
1 421 
1 422 
1 423 
1 424 
1 425 
1 426 
1 427 
1 428 
1 429 
1 430 
1 431 
1 432 
1 433 
1 434 
1 435 
1 436 
1 437 
1 438 
1 439 
1 440 
1 441 
1 442 
1 443 
1 444 
1 445 
1 446 
1 447 
1 448 
1 449 
1 450 
1 451 
1 452 
1 453 
1 454 
1 455 
1 456 
1 457 
1 458 
1 459 
1 460 
1 461 
1 462 
1 463 
1 464 
1 465 
1 466 
1 467 
1 468 
1 469 
1 470 
1 471 
1 472 
1 473 
1 474 
1 475 
1 476 
1 477 
1 478 
1 479 

POINT_DATA 480
FIELD FieldData 7
id 1 480 int
56 9 16 30 19 34 31 3 32 
2 26 33 6 60 7 36 22 24 
10 23 5 21 38 1 11 79 13 
27 28 68 108 99 58 41 54 57 
126 40 88 247 315 281 151 42 101 
48 232 29 45 46 87 72 14 83 
50 49 18 85 43 122 44 8 92 
4 52 15 84 69 51 70 93 67 
12 96 116 17 35 63 130 59 240 
20 76 62 112 47 125 174 100 166 
142 133 64 156 132 65 73 75 104 
61 147 39 162 109 134 55 114 71 
37 74 94 111 103 158 145 177 150 
148 82 95 176 167 25 53 136 77 
118 154 163 120 175 196 182 89 121 
90 187 97 143 146 140 98 81 137 
110 192 78 144 181 185 128 105 138 
157 66 86 165 159 204 135 186 123 
200 141 170 153 127 80 139 113 124 
245 129 188 117 257 198 155 164 161 
91 183 230 191 202 149 211 152 208 
172 206 180 102 271 131 178 274 171 
228 252 189 227 207 214 220 233 199 
119 218 205 212 224 219 169 221 203 
193 194 106 115 243 160 197 209 260 
223 215 216 217 168 285 258 190 226 
184 265 238 269 266 225 254 235 256 
251 179 476 478 239 470 469 248 229 
473 475 480 477 471 468 241 479 287 
286 268 472 308 273 234 242 213 327 
299 261 210 201 255 295 328 237 270 
253 249 320 262 259 290 277 236 322 
267 319 323 324 325 107 309 300 307 
289 275 317 272 296 250 278 302 311 
305 335 321 244 246 284 316 222 294 
173 310 313 314 333 306 231 326 293 
288 304 334 264 340 297 298 329 282 
195 337 303 292 312 279 318 331 339 
330 280 332 336 301 291 283 338 263 
344 276 345 352 346 350 347 351 349 
343 341 342 353 348 366 363 365 357 
358 354 359 356 362 364 360 376 371 
361 355 375 373 379 367 377 369 368 
372 378 374 370 389 380 387 390 388 
391 383 386 384 385 381 392 382 400 
394 397 402 398 403 395 401 396 404 
399 413 405 393 409 412 417 410 411 
418 415 407 406 408 416 414 424 430 
429 419 422 426 428 425 420 423 421 
442 427 436 432 434 437 441 440 433 
435 438 439 431 454 452 447 450 453 
451 446 443 445 448 449 444 464 457 
458 455 460 462 466 459 463 456 467 
465 461 474 
type 1 480 int
1 1 1 1 1 1 1 1 1 
1 1 1 1 1 1 1 1 1 
1 1 1 1 1 1 1 1 1 
1 1 1 1 1 1 1 1 1 
1 1 1 1 1 1 1 1 1 
1 1 1 1 1 1 1 1 1 
1 1 1 1 1 1 1 1 1 
1 1 1 1 1 1 1 1 1 
1 1 1 1 1 1 1 1 1 
1 1 1 1 1 1 1 1 1 
1 1 1 1 1 1 1 1 1 
1 1 1 1 1 1 1 1 1 
1 1 1 1 1 1 1 1 1 
1 1 1 1 1 1 1 1 1 
1 1 1 1 1 1 1 1 1 
1 1 1 1 1 1 1 1 1 
1 1 1 1 1 1 1 1 1 
1 1 1 1 1 1 1 1 1 
1 1 1 1 1 1 1 1 1 
1 1 1 1 1 1 1 1 1 
1 1 1 1 1 1 1 1 1 
1 1 1 1 1 1 1 1 1 
1 1 1 1 1 1 1 1 1 
1 1 1 1 1 1 1 1 1 
1 1 1 1 1 1 1 1 1 
1 1 1 1 1 1 1 1 1 
1 1 1 1 1 1 1 1 1 
1 1 1 1 1 1 1 1 1 
1 1 1 1 1 1 1 1 1 
1 1 1 1 1 1 1 1 1 
1 1 1 1 1 1 1 1 1 
1 1 1 1 1 1 1 1 1 
1 1 1 1 1 1 1 1 1 
1 1 1 1 1 1 1 1 1 
1 1 1 1 1 1 1 1 1 
1 1 1 1 1 1 1 1 1 
1 1 1 1 1 1 1 1 1 
1 1 1 1 1 1 1 1 1 
1 1 1 1 1 1 1 1 1 
1 1 1 1 1 1 1 1 1 
1 1 1 1 1 1 1 1 1 
1 1 1 1 1 1 1 1 1 
1 1 1 1 1 1 1 1 1 
1 1 1 1 1 1 1 1 1 
1 1 1 1 1 1 1 1 1 
1 1 1 1 1 1 1 1 1 
1 1 1 1 1 1 1 1 1 
1 1 1 1 1 1 1 1 1 
1 1 1 1 1 1 1 1 1 
1 1 1 1 1 1 1 1 1 
1 1 1 1 1 1 1 1 1 
1 1 1 1 1 1 1 1 1 
1 1 1 1 1 1 1 1 1 
1 1 1 
i 3 480 int
0 0 0 0 0 0 0 0 0 
0 0 0 0 0 0 0 0 0 
0 0 0 0 0 0 0 0 0 
0 0 0 0 0 0 0 0 0 
0 0 0 0 0 0 0 0 0 
0 0 0 0 0 0 0 0 0 
0 0 0 0 0 0 0 0 0 
0 0 0 0 0 0 0 0 0 
0 0 0 0 0 0 0 0 0 
0 0 0 0 0 0 0 0 0 
0 0 0 0 0 0 0 0 0 
0 0 0 0 0 0 0 0 0 
0 0 0 0 0 0 0 0 0 
0 0 0 0 0 0 0 0 0 
0 0 0 0 0 0 0 0 0 
0 0 0 0 0 0 0 0 0 
0 0 0 0 0 0 0 0 0 
0 0 0 0 0 0 0 0 0 
0 0 0 0 0 0 0 0 0 
0 0 0 0 0 0 0 0 0 
0 0 0 0 0 0 0 0 0 
0 0 0 0 0 0 0 0 0 
0 0 0 0 0 0 0 0 0 
0 0 0 0 0 0 0 0 0 
0 0 0 0 0 0 0 0 0 
0 0 0 0 0 0 0 0 0 
0 0 0 0 0 0 0 0 0 
0 0 0 0 0 0 0 0 0 
0 0 0 0 0 0 0 0 0 
0 0 0 0 0 0 0 0 0 
0 0 0 0 0 0 0 0 0 
0 0 0 0 0 0 0 0 0 
0 0 0 0 0 0 0 0 0 
0 0 0 0 0 0 0 0 0 
0 0 0 0 0 0 0 0 0 
0 0 0 0 0 0 0 0 0 
0 0 0 0 0 0 0 0 0 
0 0 0 0 0 0 0 0 0 
0 0 0 0 0 0 0 0 0 
0 0 0 0 0 0 0 0 0 
0 0 0 0 0 0 0 0 0 
0 0 0 0 0 0 0 0 0 
0 0 0 0 0 0 0 0 0 
0 0 0 0 0 0 0 0 0 
0 0 0 0 0 0 0 0 0 
0 0 0 0 0 0 0 0 0 
0 0 0 0 0 0 0 0 0 
0 0 0 0 0 0 0 0 0 
0 0 0 0 0 0 0 0 0 
0 0 0 0 0 0 0 0 0 
0 0 0 0 0 0 0 0 0 
0 0 0 0 0 0 0 0 0 
0 0 0 0 0 0 0 0 0 
0 0 0 0 0 0 0 0 0 
0 0 0 0 0 0 0 0 0 
0 0 0 0 0 0 0 0 0 
0 0 0 0 0 0 0 0 0 
0 0 0 0 0 0 0 0 0 
0 0 0 0 0 0 0 0 0 
0 0 0 0 0 0 0 0 0 
0 0 0 0 0 0 0 0 0 
0 0 0 0 0 0 0 0 0 
0 0 0 0 0 0 0 0 0 
0 0 0 0 0 0 0 0 0 
0 0 0 0 0 0 0 0 0 
0 0 0 0 0 0 0 0 0 
0 0 0 0 0 0 0 0 0 
0 0 0 0 0 0 0 0 0 
0 0 0 0 0 0 0 0 0 
0 0 0 0 0 0 0 0 0 
0 0 0 0 0 0 0 0 0 
0 0 0 0 0 0 0 0 0 
0 0 0 0 0 0 0 0 0 
0 0 0 0 0 0 0 0 0 
0 0 0 0 0 0 0 0 0 
0 0 0 0 0 0 0 0 0 
0 0 0 0 0 0 0 0 0 
0 0 0 0 0 0 0 0 0 
0 0 0 0 0 0 0 0 0 
0 0 0 0 0 0 0 0 0 
0 0 0 0 0 0 0 0 0 
0 0 0 0 0 0 0 0 0 
0 0 0 0 0 0 0 0 0 
0 0 0 0 0 0 0 0 0 
0 0 0 0 0 0 0 0 0 
0 0 0 0 0 0 0 0 0 
0 0 0 0 0 0 0 0 0 
0 0 0 0 0 0 0 0 0 
0 0 0 0 0 0 0 0 0 
0 0 0 0 0 0 0 0 0 
0 0 0 0 0 0 0 0 0 
0 0 0 0 0 0 0 0 0 
0 0 0 0 0 0 0 0 0 
0 0 0 0 0 0 0 0 0 
0 0 0 0 0 0 0 0 0 
0 0 0 0 0 0 0 0 0 
0 0 0 0 0 0 0 0 0 
0 0 0 0 0 0 0 0 0 
0 0 0 0 0 0 0 0 0 
0 0 0 0 0 0 0 0 0 
0 0 0 0 0 0 0 0 0 
0 0 0 0 0 0 0 0 0 
0 0 0 0 0 0 0 0 0 
0 0 0 0 0 0 0 0 0 
0 0 0 0 0 0 0 0 0 
0 0 0 0 0 0 0 0 0 
0 0 0 0 0 0 0 0 0 
0 0 0 0 0 0 0 0 0 
0 0 0 0 0 0 0 0 0 
0 0 0 0 0 0 0 0 0 
0 0 0 0 0 0 0 0 0 
0 0 0 0 0 0 0 0 0 
0 0 0 0 0 0 0 0 0 
0 0 0 0 0 0 0 0 0 
0 0 0 0 0 0 0 0 0 
0 0 0 0 0 0 0 0 0 
0 0 0 0 0 0 0 0 0 
0 0 0 0 0 0 0 0 0 
0 0 0 0 0 0 0 0 0 
0 0 0 0 0 0 0 0 0 
0 0 0 0 0 0 0 0 0 
0 0 0 0 0 0 0 0 0 
0 0 0 0 0 0 0 0 0 
0 0 0 0 0 0 0 0 0 
0 0 0 0 0 0 0 0 0 
0 0 0 0 0 0 0 0 0 
0 0 0 0 0 0 0 0 0 
0 0 0 0 0 0 0 0 0 
0 0 0 0 0 0 0 0 0 
0 0 0 0 0 0 0 0 0 
0 0 0 0 0 0 0 0 0 
0 0 0 0 0 0 0 0 0 
0 0 0 0 0 0 0 0 0 
0 0 0 0 0 0 0 0 0 
0 0 0 0 0 0 0 0 0 
0 0 0 0 0 0 0 0 0 
0 0 0 0 0 0 0 0 0 
0 0 0 0 0 0 0 0 0 
0 0 0 0 0 0 0 0 0 
0 0 0 0 0 0 0 0 0 
0 0 0 0 0 0 0 0 0 
0 0 0 0 0 0 0 0 0 
0 0 0 0 0 0 0 0 0 
0 0 0 0 0 0 0 0 0 
0 0 0 0 0 0 0 0 0 
0 0 0 0 0 0 0 0 0 
0 0 0 0 0 0 0 0 0 
0 0 0 0 0 0 0 0 0 
0 0 0 0 0 0 0 0 0 
0 0 0 0 0 0 0 0 0 
0 0 0 0 0 0 0 0 0 
0 0 0 0 0 0 0 0 0 
0 0 0 0 0 0 0 0 0 
0 0 0 0 0 0 0 0 0 
0 0 0 0 0 0 0 0 0 
0 0 0 0 0 0 0 0 0 
0 0 0 0 0 0 0 0 0 
0 0 0 0 0 0 0 0 0 
0 0 0 0 0 0 0 0 0 
0 0 0 0 0 0 0 0 0 

v 3 480 double
-1.56657 -0.176984 -0.708709 -1.39083 -0.127942 -0.582291 -1.28794 0.00313421 -0.540921 
-1.19587 0.101866 -0.518036 -1.07969 0.0403375 -0.456695 -1.32858 -0.0905882 -0.464066 
-1.24897 0.0367492 -0.482827 -1.20543 0.197534 -0.520003 -1.13239 0.156826 -0.471592 
-0.986714 -0.119194 -0.362491 -1.22406 0.0501929 -0.459741 -0.999293 -0.117209 -0.385697 
-0.93486 0.0784857 -0.393282 -0.989231 0.109919 -0.431646 -1.09319 -0.0846755 -0.447225 
-0.992536 0.0764644 -0.419819 -1.06304 0.047874 -0.454217 -1.20582 -0.267663 -0.559533 
-0.859167 -0.0572063 -0.359639 -1.01565 -0.0249517 -0.393796 -1.10036 0.073146 -0.456325 
-1.05163 0.0698172 -0.44065 -1.18523 0.291004 -0.718329 -1.06022 0.0694184 -0.429803 
-0.938649 0.161195 -0.369295 -0.941638 -0.176139 -0.411007 -0.955076 0.0313548 -0.407091 
-1.11832 -0.107013 -0.535541 -1.04213 0.12088 -0.416161 -1.23099 -0.1103 -0.504806 
-1.20521 0.0251678 -0.468842 -1.12442 0.0755074 -0.486835 -1.15224 -0.15175 -0.402875 
-1.00175 0.0197423 -0.406572 -0.818351 0.0594004 -0.33695 -0.953868 -0.051807 -0.406109 
-1.07766 -0.276287 -0.459024 -0.918 -0.0607534 -0.389782 -0.752935 -0.0494022 -0.272083 
-0.411157 -0.131435 -0.441633 -0.618733 0.00129242 -0.123725 -0.818897 -0.11252 -0.358637 
-0.614527 -0.0212835 -0.270082 -0.898679 -0.0155891 -0.37349 -0.934679 -0.0248301 -0.402171 
-0.927794 0.0970673 -0.372398 -0.700108 -0.328583 -0.636908 -0.841561 -0.0197554 -0.362528 
-0.845729 0.0165473 -0.354343 -0.863293 0.00785644 -0.362999 -0.788403 0.00223387 -0.330076 
-0.898323 0.18825 -0.357448 -0.865238 -0.0217185 -0.363006 -0.807098 0.132892 -0.327156 
-0.76859 -0.025291 -0.316016 -0.852435 -0.121255 -0.361295 -0.82353 0.0342436 -0.345487 
-0.749795 -0.038084 -0.323186 -0.906072 0.0636786 -0.368772 -1.0586 -0.0849556 -0.275231 
-0.908955 -0.147018 -0.413901 -0.975884 -0.0770423 -0.418443 -1.09521 0.0810423 -0.487023 
-0.99126 -0.0292622 -0.436515 -0.580259 -0.111249 -0.277501 -0.795339 -0.0393701 -0.336588 
-0.599414 -0.0349227 -0.304355 -0.681202 -0.0299035 -0.280638 -0.68569 0.0745668 -0.363064 
-0.644369 0.0670454 -0.279049 -0.949235 -0.12471 -0.416249 -0.987467 -0.0432917 -0.410403 
-0.711404 -0.0914345 -0.299237 -0.677336 -0.127018 -0.282458 -0.941214 -0.148677 -0.538765 
-0.711225 -0.0386236 -0.293107 -0.685389 -0.081816 -0.282995 -0.88379 0.00919005 -0.739164 
-1.09076 -0.060495 -0.470341 -0.909226 -0.00281375 -0.363937 -0.532945 -0.0663744 -0.232325 
-0.892421 0.199263 -0.474632 -0.941212 -0.0264081 -0.427503 -0.897931 0.0299239 -0.383081 
-0.713244 -0.173172 -0.287546 -0.715649 -0.0414714 -0.295068 -0.828758 -0.133498 -0.533319 
-0.724306 0.0684249 -0.301934 -1.05094 -0.015827 -0.371799 -0.770149 -0.0736432 -0.328267 
-0.962735 -0.0182138 -0.762836 -1.01701 0.0290908 -0.729436 -0.737432 -0.0124354 -0.303417 
-0.725963 -0.0621212 -0.294028 -1.1092 0.0260293 -0.386136 -0.660567 0.018577 -0.285764 
-0.650342 0.0296538 -0.281081 -1.00431 0.152002 -0.356481 -0.918224 -0.0569592 -0.350539 
-0.736434 -0.140736 -0.275311 -0.835073 -0.160203 -0.270532 -0.857436 -0.0868787 -0.357498 
-1.07866 -0.109455 -0.379881 -0.996644 -0.0283876 -0.473544 -1.21799 -0.0254406 -0.131718 
-0.555643 0.186605 -0.512561 -0.95503 0.180336 -0.378517 -0.896304 0.0716885 -0.358524 
-0.882329 -0.0589361 -0.389271 -0.840788 -0.0321786 -0.353596 -0.815631 -0.0151602 -0.336211 
-0.673321 -0.0346986 -0.275544 -0.834112 -0.0843545 -0.33839 -0.83831 0.00070009 -0.348344 
-0.928423 0.0512623 -0.292568 -0.967848 0.24268 -0.458626 -0.771318 0.0601483 -0.328419 
-1.13829 0.114939 -0.623895 -0.763617 0.0288373 -0.306634 -0.732011 -0.0176072 -0.300449 
-0.735918 -0.168267 -0.380913 -0.717699 -0.0506682 -0.462264 -0.826145 0.19678 -0.323858 
-0.789769 -0.0534328 -0.609691 -0.717408 0.218386 -0.484825 -0.866212 -0.024802 -0.365785 
-0.725051 -0.0500889 -0.387701 -0.803874 -0.0247097 -0.330651 -0.909307 -0.149008 -0.3161 
-0.808994 -0.0592934 -0.321823 -0.900239 0.0359497 -0.384243 -1.01409 -0.301251 -0.35475 
-0.891516 0.0229712 -0.578688 -0.63418 -0.0322858 -0.241268 -0.578771 0.0606798 -0.228041 
-0.57299 -0.102931 -0.241225 -0.594116 -0.125207 -0.241183 -0.449025 0.0591372 -0.189712 
-0.606074 0.00592312 -0.267229 -0.914723 0.192763 -0.315265 -0.805945 0.227281 -0.321122 
-0.744759 0.0513686 -0.305568 -0.835366 -0.141852 -0.231505 -0.711854 -0.0509745 -0.250519 
-0.653147 0.0355692 -0.280191 -1.01215 0.0798904 -0.789351 -0.586214 0.0152401 -0.2462 
-0.596401 -0.031623 -0.250987 -1.18972 -0.0279261 -0.121908 -0.563277 0.100275 -0.209294 
-0.587544 -0.0479062 -0.223781 -0.61901 0.0896573 -0.2532 -0.869866 -0.138749 -0.377733 
-0.770563 -0.129934 -0.340239 -0.596193 -0.0415551 -0.255126 -0.712992 0.00682905 -0.28865 
-0.533219 -0.194737 -0.204456 -0.748449 -0.186215 -0.15984 -0.717619 0.149562 -0.336398 
-0.620587 0.192612 -0.259117 -0.804317 -0.0795289 -0.50621 -0.649322 0.0372448 -0.271966 
-0.832241 -0.31788 -0.912373 -0.520078 0.0561949 -0.219916 -0.583313 -0.0874233 -0.17335 
-0.679487 0.0693028 -0.316601 -0.642058 0.00543103 -0.26799 -0.60391 0.109371 -0.247206 
-0.883537 0.300809 -0.527199 -0.533444 0.0262057 -0.215483 -0.766571 0.203537 -0.21728 
-0.925258 -0.00112965 -0.38284 -0.547 -0.0556929 -0.36176 -0.811542 -0.090411 -0.224345 
-0.525769 0.0745598 -0.19943 -0.875759 -0.0433322 0.115921 -0.758237 0.0215414 -0.798798 