# vtk DataFile Version 4.0
Generated by LIGGGHTS
ASCII
DATASET POLYDATA
POINTS 583 float
-0.453102 -0.00395419 -0.331867 -0.413999 -0.0145578 -0.298214 -0.384265 -0.000447198 -0.27555 
-0.451421 0.0492882 -0.278778 -0.368861 -0.0104901 -0.266024 -0.385581 -0.04547 -0.262203 
-0.372825 0.0363255 -0.261185 -0.352173 -0.00731147 -0.257221 -0.353945 0.00933154 -0.256437 
-0.340088 0.00658829 -0.250107 -0.358573 0.0374381 -0.250726 -0.35827 0.0458529 -0.247866 
-0.337995 -0.0367982 -0.241179 -0.321622 -0.00849826 -0.241233 -0.316674 0.0087025 -0.239125 
-0.315958 -0.0253104 -0.235955 -0.310364 -0.00818947 -0.236676 -0.315329 0.00510565 -0.238785 
-0.317752 0.0143395 -0.237957 -0.31198 0.0152697 -0.236461 -0.321688 0.0226236 -0.237985 
-0.306006 -0.00695886 -0.234926 -0.303072 0.00643796 -0.233537 -0.333866 0.0110189 -0.236468 
-0.320459 0.0400594 -0.231647 -0.331795 -0.0473911 -0.233262 -0.314206 -0.0399659 -0.23021 
-0.29849 -0.0148037 -0.230959 -0.295703 -0.000335989 -0.23081 -0.30122 0.0258152 -0.228819 
-0.303918 0.0300489 -0.22979 -0.292591 -0.018584 -0.226778 -0.287565 0.0100584 -0.226762 
-0.293423 0.0245771 -0.225853 -0.307003 -0.0505527 -0.222015 -0.277147 0.00257608 -0.221772 
-0.282175 0.00746749 -0.223571 -0.281896 -0.0254966 -0.220935 -0.264788 -0.0122782 -0.217073 
-0.271064 0.00361998 -0.220245 -0.276741 0.00793908 -0.221302 -0.27933 0.0283237 -0.220191 
-0.283602 0.0365838 -0.21946 -0.262374 0.00427769 -0.216541 -0.261522 0.00727609 -0.216014 
-0.263498 0.0126943 -0.215417 -0.263011 0.0166911 -0.215684 -0.256427 -0.0204305 -0.212435 
-0.261305 -0.0187485 -0.213722 -0.254731 -0.00985129 -0.213142 -0.273611 -0.00460857 -0.215874 
-0.257069 -0.0018532 -0.213401 -0.251964 0.00194554 -0.212239 -0.253246 0.0214125 -0.210881 
-0.253834 0.0248617 -0.210563 -0.258634 0.027577 -0.211815 -0.270109 0.0298004 -0.214799 
-0.259472 -0.0338168 -0.209472 -0.243986 -0.0128138 -0.207195 -0.243568 -0.00813298 -0.208508 
-0.239843 -0.00778109 -0.2069 -0.24696 -0.00252569 -0.210199 -0.24556 0.00131933 -0.209549 
-0.240174 0.00768802 -0.207032 -0.249963 -0.0350682 -0.206109 -0.241729 -0.0317657 -0.203762 
-0.234076 -0.0119204 -0.202985 -0.229817 -0.00940608 -0.202496 -0.265258 -0.00600853 -0.206039 
-0.273667 -7.64341e-05 -0.206177 -0.232757 0.00550627 -0.202928 -0.241735 0.0184735 -0.206508 
-0.260894 0.0457061 -0.206641 -0.24975 -0.0389651 -0.203827 -0.255451 -0.0115896 -0.202813 
-0.225269 -0.00765405 -0.200745 -0.223086 -0.0102646 -0.199573 -0.251633 -0.00061339 -0.204799 
-0.233464 0.000303321 -0.201632 -0.227812 0.00899519 -0.20183 -0.256532 0.0497915 -0.203211 
-0.296252 -0.0717891 -0.19846 -0.241128 -0.0399301 -0.199869 -0.220952 -0.0205227 -0.196509 
-0.220214 -0.00925372 -0.198452 -0.217011 -0.00957842 -0.196011 -0.222411 -0.00560867 -0.198611 
-0.212448 -0.0043995 -0.195523 -0.216237 -0.00314063 -0.196106 -0.214175 0.0077279 -0.196097 
-0.224232 0.0209722 -0.196203 -0.233583 0.0287914 -0.200008 -0.216431 -0.0346086 -0.192643 
-0.219083 -0.0272359 -0.194286 -0.213091 -0.027403 -0.192902 -0.214643 -0.0214878 -0.194824 
-0.213642 -0.0181469 -0.194832 -0.211629 -0.0196075 -0.193087 -0.209769 -0.0139136 -0.193505 
-0.212647 -0.0143919 -0.194807 -0.211679 -0.0104756 -0.194789 -0.210734 0.00723764 -0.193256 
-0.218695 0.0226922 -0.195256 -0.208371 -0.0153828 -0.18892 -0.221109 0.0260803 -0.189522 
-0.214425 -0.00676748 -0.192546 -0.224403 -0.0617026 -0.18443 -0.216515 -0.0701208 -0.175944 
-0.208722 -0.019102 -0.192458 -0.210398 -0.00700458 -0.193168 -0.208668 0.0226144 -0.192142 
-0.208602 0.00106324 -0.193893 -0.208854 -0.00223628 -0.194019 -0.207286 0.00960036 -0.193096 
-0.205512 0.00468797 -0.192584 -0.205249 0.000591203 -0.191403 -0.203646 0.0182658 -0.189522 
-0.200572 0.0151007 -0.189659 -0.0635858 0.0284597 -0.12936 -0.0567561 0.0212521 -0.127336 
-0.0553341 -0.0150014 -0.127662 -0.0789423 -0.00172124 -0.128176 -0.0513972 -0.011862 -0.127053 
-0.0884106 0.0109127 -0.131657 -0.0494905 0.00366025 -0.12677 -0.199791 0.0115245 -0.189701 
-0.050856 -0.000697178 -0.126005 -0.0470561 0.00589211 -0.125522 -0.0576114 0.00857735 -0.130111 
-0.196552 -0.0152733 -0.187923 -0.193319 -0.0158513 -0.18538 -0.192614 0.00327296 -0.187182 
-0.187776 0.00697013 -0.18504 -0.197292 0.011632 -0.188044 -0.191323 0.0138178 -0.185912 
-0.196219 0.0146194 -0.187903 -0.199249 0.0194873 -0.188362 -0.197231 0.0286862 -0.186025 
-0.194636 -0.0353561 -0.183446 -0.190076 -0.0310883 -0.181439 -0.185846 -0.0212975 -0.1826 
-0.18999 -0.018188 -0.184814 -0.181456 -0.00635509 -0.182338 -0.184672 -0.0029415 -0.183769 
-0.1866 0.00212328 -0.184107 -0.188663 0.026159 -0.182995 -0.177816 -0.0118964 -0.17947 
-0.183846 -0.00877735 -0.179757 -0.175343 -0.00771 -0.179622 -0.173353 -0.00432975 -0.17791 
-0.174937 0.00807592 -0.179499 -0.176151 0.0112661 -0.179677 -0.179712 0.0164669 -0.180537 
-0.1845 0.0351211 -0.178325 -0.19156 0.0414373 -0.179125 -0.190343 -0.0495808 -0.177035 
-0.183532 -0.0461618 -0.175442 -0.179845 -0.034068 -0.177664 -0.179769 -0.0310225 -0.17827 
-0.162552 -0.00797231 -0.174403 -0.180679 -0.00793954 -0.176937 -0.166548 -0.00488958 -0.1751 
-0.16394 0.000319073 -0.174024 -0.168067 0.0049768 -0.175779 -0.172189 0.0153493 -0.177599 
-0.172081 0.0204116 -0.176086 -0.165801 -0.0314778 -0.172534 -0.160256 -0.00433278 -0.172459 
-0.152749 0.00139498 -0.170381 -0.15753 0.00527403 -0.172346 -0.155033 0.00343386 -0.171296 
-0.152428 0.00446954 -0.170211 -0.158699 0.00968665 -0.171282 -0.16111 0.0120982 -0.173383 
-0.163773 0.0150755 -0.173145 -0.163687 0.0211657 -0.172402 -0.152449 -0.0217487 -0.167665 
-0.1554 -0.0110086 -0.170106 -0.146169 -0.0068006 -0.167522 -0.159654 -0.00318012 -0.168601 
-0.155591 -0.00244584 -0.170468 -0.171291 0.00764132 -0.172208 -0.148377 0.00403695 -0.167403 
-0.176963 0.028717 -0.174576 -0.157307 0.0347074 -0.168276 -0.195819 0.0698057 -0.168384 
-0.150297 -0.0389559 -0.163025 -0.141968 -0.0200764 -0.164639 -0.14455 -0.013201 -0.16534 
-0.141656 -0.00915909 -0.165532 -0.150452 -0.00732938 -0.163294 -0.142256 -0.00224491 -0.164967 
-0.139168 0.000317596 -0.161397 -0.140877 0.00288271 -0.16533 -0.142163 0.00662457 -0.164637 
-0.140838 0.0220359 -0.163799 -0.146119 0.0253232 -0.165294 -0.156818 0.0496202 -0.163471 
-0.13819 -0.00813333 -0.163041 -0.174807 -0.0057702 -0.168157 -0.142743 -0.00873878 -0.161749 
-0.132568 -0.00524889 -0.161807 -0.143424 0.000858351 -0.161025 -0.137208 0.00368914 -0.162713 
-0.128168 0.00444886 -0.159948 -0.126888 0.00745037 -0.159243 -0.139039 0.0153829 -0.162781 
-0.130973 0.0156726 -0.160475 -0.142914 0.025059 -0.161628 -0.141164 -0.041344 -0.158628 
-0.130737 -0.0358989 -0.156952 -0.136706 -0.0341006 -0.158713 -0.173912 -0.0246497 -0.165064 
-0.128753 -0.0197378 -0.159035 -0.155251 -0.0140282 -0.161664 -0.123177 -0.0104847 -0.157597 
-0.131554 -0.00759665 -0.158116 -0.121173 -0.00813551 -0.15692 -0.123172 -0.00597915 -0.157919 
-0.164954 -0.00220439 -0.160527 -0.134919 -0.00204535 -0.158461 -0.126987 -0.00341629 -0.158483 
-0.12067 -0.00271454 -0.156898 -0.145275 0.0069889 -0.161421 -0.133217 0.00960435 -0.156062 
-0.147867 0.0134297 -0.154247 -0.127182 0.013824 -0.159021 -0.135913 0.0192018 -0.156718 
-0.151456 0.0602451 -0.156921 -0.11628 -0.0150694 -0.153038 -0.116022 -0.00996967 -0.153537 
-0.126353 -0.00514618 -0.154887 -0.119161 -0.00550929 -0.154477 -0.110766 -0.00665555 -0.152621 
-0.109299 -0.00012992 -0.152027 -0.114119 0.0124833 -0.153616 -0.124535 0.0201386 -0.156609 
-0.118217 0.0215775 -0.154323 -0.129559 0.0413463 -0.155119 -0.130555 0.0462604 -0.153909 
-0.155347 0.0656656 -0.154465 -0.114635 -0.0320874 -0.151083 -0.103827 -0.0167019 -0.148999 
-0.111543 -0.0122685 -0.151585 -0.104427 -0.0123781 -0.149582 -0.117175 -0.0047548 -0.14937 
-0.124971 -0.00293094 -0.15311 -0.114358 -0.00222422 -0.151852 -0.107782 -0.00393957 -0.149715 
-0.102175 -0.00124275 -0.149093 -0.114661 0.00196684 -0.152701 -0.104178 0.00340712 -0.148823 
-0.108922 0.00840396 -0.151726 -0.10101 0.00871705 -0.148388 -0.105564 0.0157803 -0.149767 
-0.115138 0.0201403 -0.152095 -0.102004 -0.019021 -0.147913 -0.10721 -0.0147051 -0.149465 
-0.100911 -0.0144861 -0.147954 -0.0976163 -0.0144221 -0.146543 -0.14078 -0.0104673 -0.148345 
-0.0968245 -0.0105674 -0.146481 -0.0940556 -0.0106178 -0.144893 -0.100285 -0.00612338 -0.147132 
-0.107795 -0.000185994 -0.147039 -0.0960859 -0.00298836 -0.146548 -0.10829 0.0028719 -0.147769 
-0.0966801 0.00388216 -0.146768 -0.0956844 0.00738439 -0.145161 -0.0996151 0.012759 -0.146399 
-0.124325 0.0187874 -0.151635 -0.103709 0.0182427 -0.148802 -0.102331 0.0208027 -0.147822 
-0.0954465 -0.017237 -0.145316 -0.0917643 -0.0135426 -0.144059 -0.0901831 -0.00742815 -0.143872 
-0.0878058 -0.0105055 -0.141605 -0.0948286 -0.00670183 -0.144785 -0.0880309 -0.00435704 -0.14204 
-0.113636 -0.00111432 -0.147305 -0.108462 0.00217285 -0.143109 -0.100148 -0.00179894 -0.143624 
-0.0903742 -0.00191345 -0.144144 -0.0877257 -0.000311146 -0.143002 -0.093671 0.00275584 -0.144393 
-0.0840692 0.00763312 -0.141354 -0.094378 0.0124342 -0.144188 -0.0967109 0.0171048 -0.144832 
-0.0972993 0.0312169 -0.14412 -0.105631 0.0336032 -0.143169 -0.151024 0.0813248 -0.144122 
-0.096168 -0.0433008 -0.140652 -0.0877161 -0.0214984 -0.140491 -0.0807024 -0.0206941 -0.138752 
-0.105945 -0.00407059 -0.143747 -0.0785585 -0.007128 -0.138975 -0.0977637 0.000776345 -0.139166 
-0.09075 -0.00146411 -0.140558 -0.0836793 -0.00267718 -0.14024 -0.0788382 -0.00317929 -0.13931 
-0.0903234 0.00993537 -0.141457 -0.0993408 0.0206237 -0.142579 -0.0865478 0.0164217 -0.140594 
-0.0822379 0.0194589 -0.139599 -0.104173 0.0371373 -0.143474 -0.0798917 -0.0244071 -0.137239 
-0.0879502 -0.0195467 -0.136928 -0.0730938 -0.0104916 -0.136496 -0.0860522 -0.00485025 -0.13735 
-0.0737535 -0.00389749 -0.137106 -0.0709444 -0.00574533 -0.134734 -0.104287 -0.000480039 -0.14157 
-0.0697949 -0.000412919 -0.135465 -0.100482 0.00636867 -0.140695 -0.0749568 0.00703682 -0.136301 
[...]
POINT_DATA 583
FIELD FieldData 7
id 1 583 int
56 9 16 24 30 34 31 19 3 
32 26 68 2 7 22 33 6 60 
5 21 1 23 36 27 38 108 99 
10 13 28 11 79 57 41 58 54 
40 92 88 42 101 48 8 46 122 
14 44 83 4 49 63 29 45 43 
72 93 130 67 15 50 18 100 87 
85 20 62 116 109 53 142 51 148 
59 76 162 69 84 134 132 70 75 
126 104 52 35 166 17 156 64 133 
71 114 147 39 61 74 12 112 96 
125 47 65 177 103 91 181 163 81 
94 192 37 174 158 73 145 77 154 
82 332 354 303 379 336 301 298 55 
394 362 334 111 167 25 136 150 118 
95 233 146 120 176 196 175 182 200 
138 98 89 187 186 90 143 157 198 
140 139 137 86 110 245 144 188 78 
128 153 274 66 159 204 123 121 185 
135 127 97 105 80 268 203 170 209 
202 227 141 222 113 124 165 171 228 
194 224 117 239 155 164 271 161 265 
191 244 234 211 243 102 180 260 178 
206 215 230 119 129 231 287 232 252 
218 208 149 257 246 152 172 270 259 
327 131 262 183 205 189 219 214 250 
207 220 278 258 199 238 216 290 212 
275 221 254 236 284 115 106 282 190 
160 197 223 151 315 251 286 249 281 
169 225 193 277 168 288 333 269 266 
304 184 299 320 313 235 229 217 253 
302 279 289 247 285 240 226 267 256 
323 210 201 347 179 237 309 321 293 
308 241 273 305 311 242 261 325 348 
295 328 272 248 316 314 335 292 329 
342 280 291 283 213 294 324 107 255 
312 317 337 276 296 310 297 318 331 
326 330 173 319 355 350 374 365 392 
307 371 300 389 370 380 395 352 322 
341 381 306 579 571 351 574 573 572 
575 339 578 582 581 576 580 405 363 
364 345 372 404 387 264 385 375 413 
360 418 409 343 423 338 344 367 357 
398 340 384 425 390 382 356 353 426 
346 368 442 349 361 383 393 407 412 
359 414 195 406 432 396 373 403 415 
428 408 397 430 358 427 437 441 421 
419 416 417 422 434 391 424 399 376 
378 369 435 410 411 401 440 420 400 
433 402 386 388 429 436 377 438 431 
263 454 366 439 452 447 453 451 446 
443 450 449 448 444 445 464 457 458 
460 466 463 455 462 459 456 465 461 
467 474 472 479 469 478 477 470 480 
473 475 476 471 468 486 484 490 492 
485 481 489 487 493 488 491 483 499 
482 504 503 502 500 501 498 497 496 
494 505 506 495 512 518 509 510 515 
517 508 513 507 511 514 519 526 516 
523 530 531 524 525 529 528 527 532 
522 520 521 540 538 542 537 534 535 
543 545 539 544 541 550 533 553 536 
549 555 551 546 554 556 552 557 548 
547 565 563 560 568 567 566 570 558 
559 561 569 562 564 577 583 
type 1 583 int
1 1 1 1 1 1 1 1 1 
1 1 1 1 1 1 1 1 1 
1 1 1 1 1 1 1 1 1 
1 1 1 1 1 1 1 1 1 
1 1 1 1 1 1 1 1 1 
1 1 1 1 1 1 1 1 1 
1 1 1 1 1 1 1 1 1 
1 1 1 1 1 1 1 1 1 
1 1 1 1 1 1 1 1 1 
1 1 1 1 1 1 1 1 1 
1 1 1 1 1 1 1 1 1 
1 1 1 1 1 1 1 1 1 
1 1 1 1 1 1 1 1 1 
1 1 1 1 1 1 1 1 1 
1 1 1 1 1 1 1 1 1 
1 1 1 1 1 1 1 1 1 
1 1 1 1 1 1 1 1 1 
1 1 1 1 1 1 1 1 1 
1 1 1 1 1 1 1 1 1 
1 1 1 1 1 1 1 1 1 
1 1 1 1 1 1 1 1 1 
1 1 1 1 1 1 1 1 1 
1 1 1 1 1 1 1 1 1 
1 1 1 1 1 1 1 1 1 
1 1 1 1 1 1 1 1 1 
1 1 1 1 1 1 1 1 1 
1 1 1 1 1 1 1 1 1 
1 1 1 1 1 1 1 1 1 
1 1 1 1 1 1 1 1 1 
1 1 1 1 1 1 1 1 1 
1 1 1 1 1 1 1 1 1 
1 1 1 1 1 1 1 1 1 
1 1 1 1 1 1 1 1 1 
1 1 1 1 1 1 1 1 1 
1 1 1 1 1 1 1 1 1 
1 1 1 1 1 1 1 1 1 
1 1 1 1 1 1 1 1 1 
1 1 1 1 1 1 1 1 1 
1 1 1 1 1 1 1 1 1 
1 1 1 1 1 1 1 1 1 
1 1 1 1 1 1 1 1 1 
1 1 1 1 1 1 1 1 1 
1 1 1 1 1 1 1 1 1 
1 1 1 1 1 1 1 1 1 
1 1 1 1 1 1 1 1 1 
1 1 1 1 1 1 1 1 1 
1 1 1 1 1 1 1 1 1 
1 1 1 1 1 1 1 1 1 
1 1 1 1 1 1 1 1 1 
1 1 1 1 1 1 1 1 1 
1 1 1 1 1 1 1 1 1 
1 1 1 1 1 1 1 1 1 
1 1 1 1 1 1 1 1 1 
1 1 1 1 1 1 1 1 1 
1 1 1 1 1 1 1 1 1 
1 1 1 1 1 1 1 1 1 
1 1 1 1 1 1 1 1 1 
1 1 1 1 1 1 1 1 1 
1 1 1 1 1 1 1 1 1 
1 1 1 1 1 1 1 1 1 
1 1 1 1 1 1 1 1 1 
1 1 1 1 1 1 1 1 1 
1 1 1 1 1 1 1 1 1 
1 1 1 1 1 1 1 1 1 
1 1 1 1 1 1 1 
i 3 583 int
0 0 0 0 0 0 0 0 0 
0 0 0 0 0 0 0 0 0 
0 0 0 0 0 0 0 0 0 
0 0 0 0 0 0 0 0 0 
0 0 0 0 0 0 0 0 0 
0 0 0 0 0 0 0 0 0 
0 0 0 0 0 0 0 0 0 
0 0 0 0 0 0 0 0 0 
0 0 0 0 0 0 0 0 0 
0 0 0 0 0 0 0 0 0 
0 0 0 0 0 0 0 0 0 
0 0 0 0 0 0 0 0 0 
0 0 0 0 0 0 0 0 0 
0 0 0 0 0 0 0 0 0 
0 0 0 0 0 0 0 0 0 
0 0 0 0 0 0 0 0 0 
0 0 0 0 0 0 0 0 0 
0 0 0 0 0 0 0 0 0 
0 0 0 0 0 0 0 0 0 
0 0 0 0 0 0 0 0 0 
0 0 0 0 0 0 0 0 0 
0 0 0 0 0 0 0 0 0 
0 0 0 0 0 0 0 0 0 
0 0 0 0 0 0 0 0 0 
0 0 0 0 0 0 0 0 0 
0 0 0 0 0 0 0 0 0 
0 0 0 0 0 0 0 0 0 
0 0 0 0 0 0 0 0 0 
0 0 0 0 0 0 0 0 0 
0 0 0 0 0 0 0 0 0 
0 0 0 0 0 0 0 0 0 
0 0 0 0 0 0 0 0 0 
0 0 0 0 0 0 0 0 0 
0 0 0 0 0 0 0 0 0 
0 0 0 0 0 0 0 0 0 
0 0 0 0 0 0 0 0 0 
0 0 0 0 0 0 0 0 0 
0 0 0 0 0 0 0 0 0 
0 0 0 0 0 0 0 0 0 
0 0 0 0 0 0 0 0 0 
0 0 0 0 0 0 0 0 0 
0 0 0 0 0 0 0 0 0 
0 0 0 0 0 0 0 0 0 
0 0 0 0 0 0 0 0 0 
0 0 0 0 0 0 0 0 0 
0 0 0 0 0 0 0 0 0 
0 0 0 0 0 0 0 0 0 
0 0 0 0 0 0 0 0 0 
0 0 0 0 0 0 0 0 0 
0 0 0 0 0 0 0 0 0 
0 0 0 0 0 0 0 0 0 
0 0 0 0 0 0 0 0 0 
0 0 0 0 0 0 0 0 0 
0 0 0 0 0 0 0 0 0 
0 0 0 0 0 0 0 0 0 
0 0 0 0 0 0 0 0 0 
0 0 0 0 0 0 0 0 0 
0 0 0 0 0 0 0 0 0 
0 0 0 0 0 0 0 0 0 
0 0 0 0 0 0 0 0 0 
0 0 0 0 0 0 0 0 0 
0 0 0 0 0 0 0 0 0 
0 0 0 0 0 0 0 0 0 
0 0 0 0 0 0 0 0 0 
0 0 0 0 0 0 0 0 0 
0 0 0 0 0 0 0 0 0 
0 0 0 0 0 0 0 0 0 
0 0 0 0 0 0 0 0 0 
0 0 0 0 0 0 0 0 0 
0 0 0 0 0 0 0 0 0 
0 0 0 0 0 0 0 0 0 
0 0 0 0 0 0 0 0 0 
0 0 0 0 0 0 0 0 0 
0 0 0 0 0 0 0 0 0 
0 0 0 0 0 0 0 0 0 
0 0 0 0 0 0 0 0 0 
0 0 0 0 0 0 0 0 0 
0 0 0 0 0 0 0 0 0 
0 0 0 0 0 0 0 0 0 
0 0 0 0 0 0 0 0 0 
0 0 0 0 0 0 0 0 0 
0 0 0 0 0 0 0 0 0 
0 0 0 0 0 0 0 0 0 
0 0 0 0 0 0 0 0 0 
0 0 0 0 0 0 0 0 0 
0 0 0 0 0 0 0 0 0 
0 0 0 0 0 0 0 0 0 
0 0 0 0 0 0 0 0 0 
0 0 0 0 0 0 0 0 0 
0 0 0 0 0 0 0 0 0 
0 0 0 0 0 0 0 0 0 
0 0 0 0 0 0 0 0 0 
0 0 0 0 0 0 0 0 0 
0 0 0 0 0 0 0 0 0 
0 0 0 0 0 0 0 0 0 
0 0 0 0 0 0 0 0 0 
0 0 0 0 0 0 0 0 0 
0 0 0 0 0 0 0 0 0 
0 0 0 0 0 0 0 0 0 
0 0 0 0 0 0 0 0 0 
0 0 0 0 0 0 0 0 0 
0 0 0 0 0 0 0 0 0 
0 0 0 0 0 0 0 0 0 
0 0 0 0 0 0 0 0 0 
0 0 0 0 0 0 0 0 0 
0 0 0 0 0 0 0 0 0 
0 0 0 0 0 0 0 0 0 
0 0 0 0 0 0 0 0 0 
0 0 0 0 0 0 0 0 0 
0 0 0 0 0 0 0 0 0 
0 0 0 0 0 0 0 0 0 
0 0 0 0 0 0 0 0 0 
0 0 0 0 0 0 0 0 0 
0 0 0 0 0 0 0 0 0 
0 0 0 0 0 0 0 0 0 
0 0 0 0 0 0 0 0 0 
0 0 0 0 0 0 0 0 0 
0 0 0 0 0 0 0 0 0 
0 0 0 0 0 0 0 0 0 
0 0 0 0 0 0 0 0 0 
0 0 0 0 0 0 0 0 0 
0 0 0 0 0 0 0 0 0 
0 0 0 0 0 0 0 0 0 
0 0 0 0 0 0 0 0 0 
0 0 0 0 0 0 0 0 0 
0 0 0 0 0 0 0 0 0 
0 0 0 0 0 0 0 0 0 
0 0 0 0 0 0 0 0 0 
0 0 0 0 0 0 0 0 0 
0 0 0 0 0 0 0 0 0 
0 0 0 0 0 0 0 0 0 
0 0 0 0 0 0 0 0 0 
0 0 0 0 0 0 0 0 0 
0 0 0 0 0 0 0 0 0 
0 0 0 0 0 0 0 0 0 
0 0 0 0 0 0 0 0 0 
0 0 0 0 0 0 0 0 0 
0 0 0 0 0 0 0 0 0 
0 0 0 0 0 0 0 0 0 
0 0 0 0 0 0 0 0 0 
0 0 0 0 0 0 0 0 0 
0 0 0 0 0 0 0 0 0 
0 0 0 0 0 0 0 0 0 
0 0 0 0 0 0 0 0 0 
0 0 0 0 0 0 0 0 0 
0 0 0 0 0 0 0 0 0 
0 0 0 0 0 0 0 0 0 
0 0 0 0 0 0 0 0 0 
0 0 0 0 0 0 0 0 0 
0 0 0 0 0 0 0 0 0 
0 0 0 0 0 0 0 0 0 
0 0 0 0 0 0 0 0 0 
0 0 0 0 0 0 0 0 0 
0 0 0 0 0 0 0 0 0 
0 0 0 0 0 0 0 0 0 
0 0 0 0 0 0 0 0 0 
0 0 0 0 0 0 0 0 0 
0 0 0 0 0 0 0 0 0 
0 0 0 0 0 0 0 0 0 
0 0 0 0 0 0 0 0 0 
0 0 0 0 0 0 0 0 0 
0 0 0 0 0 0 0 0 0 
0 0 0 0 0 0 0 0 0 
0 0 0 0 0 0 0 0 0 
0 0 0 0 0 0 0 0 0 
0 0 0 0 0 0 0 0 0 
0 0 0 0 0 0 0 0 0 
0 0 0 0 0 0 0 0 0 
0 0 0 0 0 0 0 0 0 
0 0 0 0 0 0 0 0 0 
0 0 0 0 0 0 0 0 0 
0 0 0 0 0 0 0 0 0 
0 0 0 0 0 0 0 0 0 
0 0 0 0 0 0 0 0 0 
0 0 0 0 0 0 0 0 0 
0 0 0 0 0 0 0 0 0 
0 0 0 0 0 0 0 0 0 
0 0 0 0 0 0 0 0 0 
0 0 0 0 0 0 0 0 0 
0 0 0 0 0 0 0 0 0 
0 0 0 0 0 0 0 0 0 
0 0 0 0 0 0 0 0 0 
0 0 0 0 0 0 0 0 0 
0 0 0 0 0 0 0 0 0 
0 0 0 0 0 0 0 0 0 
0 0 0 0 0 0 0 0 0 
0 0 0 0 0 0 0 0 0 
0 0 0 0 0 0 0 0 0 
0 0 0 0 0 0 0 0 0 
0 0 0 0 0 0 0 0 0 
0 0 0 0 0 0 0 0 0 
0 0 0 0 0 0 0 0 0 
0 0 0 0 0 0 0 0 0 
0 0 0 0 0 0 0 0 0 
0 0 0 
v 3 583 double
-1.56657 -0.176984 -1.49351 -1.4389 -0.122754 -1.20067 -1.38458 0.0121135 -0.993645 
-1.20582 -0.267663 -1.34433 -1.31226 0.152563 -0.889211 -1.39956 0.0102656 -0.919711 
-1.33504 -0.0723053 -0.901402 -1.14656 0.0761887 -0.732778 -1.35171 0.195162 -0.788754 
-1.29371 0.154395 -0.674169 -1.32438 -0.0834604 -0.797445 -1.29356 -0.257258 -0.919699 
-1.12274 0.0154003 -0.616494 -1.28231 -0.0239186 -0.51598 -1.12954 -0.0137033 -0.47627 
-1.18685 -0.0202596 -0.48803 -1.1321 0.0231431 -0.460861 -1.16054 0.102113 -0.482432 
-1.26075 0.0994683 -0.507978 -1.2517 -0.00695363 -0.524048 -1.25027 -0.00822656 -0.524547 
-1.17322 -0.00299328 -0.494589 -1.04002 0.0709516 -0.434466 -1.37864 0.0410424 -0.718982 
-1.02226 0.16637 -0.303922 -1.34684 0.255768 -0.641917 -1.29746 0.281866 -0.624046 
-1.05664 -0.00520684 -0.443356 -1.15675 0.0420716 -0.489772 -1.18781 0.0362485 -0.491523 
-1.18461 0.059395 -0.459721 -1.02851 -0.127878 -0.405224 -1.15483 -0.105539 -0.493562 
-1.19307 -0.0926519 -0.503672 -1.2834 0.068368 -0.505248 -1.02638 -0.0404506 -0.425261 
-1.10853 -0.0434055 -0.461453 -1.26339 0.229747 -0.58506 -0.937318 -0.00456812 -0.39121 
-1.09486 -0.027243 -0.46731 -1.13731 -0.0629846 -0.473894 -1.10816 -0.0175279 -0.472174 
-1.1583 -0.242973 -0.527172 -1.04088 -0.0355789 -0.444294 -0.969518 -0.0363318 -0.421217 
-1.05759 -0.0794978 -0.462018 -1.10601 -0.237345 -0.495616 -0.992769 0.240318 -0.442829 
-1.18861 0.041167 -0.506794 -1.04932 -0.101157 -0.439876 -1.15966 -0.0806927 -0.809554 
-0.989382 0.065086 -0.423701 -0.940179 -0.00500374 -0.400139 -0.995164 0.0171904 -0.410763 
-0.864382 0.114433 -0.329515 -1.08661 0.0735171 -0.424379 -1.27858 -0.198931 -0.568882 
-1.1902 0.104102 -0.474773 -0.983366 -0.013792 -0.376177 -0.976029 -0.0264153 -0.403118 
-0.91133 -0.069494 -0.391574 -0.904008 0.0175282 -0.411326 -0.912356 -0.0471476 -0.382575 
-0.94769 -0.0761301 -0.405167 -0.970184 0.165492 -0.469718 -1.08369 0.148395 -0.462008 
-0.802301 -0.0641674 -0.327956 -0.683577 -0.107831 -0.275299 -1.12881 -0.058781 -0.520306 
-1.27587 -0.0387698 -0.672906 -0.914506 0.0617098 -0.377744 -0.937993 -0.0433961 -0.394 
-1.07401 -0.195401 -0.518048 -1.09579 0.0965201 -0.409536 -1.20953 -0.009099 -0.584253 
-0.888645 -0.013095 -0.375702 -0.837225 -0.00133532 -0.368533 -1.21799 -0.0254406 -0.916518 
-0.999365 -0.13285 -0.57202 -0.916927 0.030484 -0.393367 -1.16371 -0.0210286 -0.466992 
-1.18604 0.114649 -0.462112 -1.07952 0.0810023 -0.516043 -0.803436 -0.0446428 -0.314911 
-0.922889 -0.0590857 -0.377073 -0.920601 -0.0583354 -0.376261 -0.883465 -0.0125075 -0.370365 
-0.966102 0.101762 -0.343594 -0.840908 -0.0658556 -0.361123 -0.822753 0.0828571 -0.376232 
-1.03502 -0.193167 -0.417631 -1.15258 0.0817275 -0.447955 -0.945185 -0.113114 -0.373558 
-0.853254 -0.200183 -0.333313 -0.933389 -0.0506603 -0.365999 -1.02756 0.00332043 -0.420096 
-0.805772 -0.0402587 -0.350313 -0.856144 -0.109762 -0.319666 -0.736604 0.0331944 -0.365654 
-0.747134 -0.0568492 -0.313835 -0.934016 -0.045132 -0.399653 -0.786684 -0.0113435 -0.333381 
-0.981627 0.10559 -0.390814 -0.819552 -0.0464887 -0.2517 -0.907664 0.0620355 -0.270192 
-1.18972 -0.0279261 -0.906708 -1.06037 0.0890835 -0.445704 -0.957156 0.110838 -0.416987 
-0.865882 -0.0147091 -0.348283 -1.05994 -0.032784 -0.261731 -0.902324 0.0274629 -0.387473 
-0.918885 0.0508143 -0.381819 -1.0238 0.0369028 -0.425503 -0.860702 0.0113582 -0.366616 
-0.869036 -0.0469431 -0.361736 -0.939261 0.0128603 -0.368592 -0.996673 -0.0399048 -0.416404 
-0.898315 0.0118946 -0.370424 -0.722664 0.0895146 -0.283251 -0.528103 -0.0615487 -0.247229 
-0.628593 0.0937379 -0.275962 -0.803517 0.031392 -0.378391 -0.587198 0.00356562 -0.214938 
-0.920154 0.513258 -0.478163 -0.552616 0.100679 -0.238686 -0.824262 -0.0257976 -0.343975 
-0.706354 0.0185648 -0.378789 -0.43767 0.13377 -0.152019 -0.590597 -0.104497 -0.258459 
-0.912025 0.0302937 -0.389974 -0.913045 0.0302132 -0.377898 -0.903222 0.0767802 -0.37604 
-0.805565 -0.0558448 -0.34953 -0.808833 -0.0325486 -0.366841 -0.861722 0.0264057 -0.36655 
-0.87833 0.0192684 -0.36376 -1.17637 0.200218 -0.592002 -1.07911 0.11716 -0.433684 
-0.996193 0.050482 -0.420358 -0.82425 -0.0608328 -0.334807 -0.754224 0.109319 -0.352794 
-0.917509 0.0158421 -0.380711 -0.807657 -0.00325035 -0.34909 -0.935961 -0.0113322 -0.401328 
-0.857639 -0.213537 -0.459905 -0.944638 -0.0376604 -0.393092 -0.859973 -0.0666879 -0.331765 
-1.10598 -0.163939 -0.522183 -0.578884 -0.0241811 -0.261473 -0.746369 -0.0821583 -0.306073 
-0.835691 -0.0634269 -0.360553 -0.907545 -0.0568265 -0.45727 -0.717568 0.161144 -0.216704 
-0.712385 0.150633 -0.261545 -0.841935 0.148827 -0.297063 -0.859047 0.105276 -0.377193 
-0.889508 0.176566 -0.41177 -0.863798 0.120128 -0.386045 -1.08484 0.177125 -0.481655 
-0.809466 -0.0262501 -0.334559 -1.12495 -0.104795 -0.283211 -0.784692 0.000279439 -0.324371 
-0.747898 0.00509184 -0.323589 -0.66421 -0.0301465 -0.276362 -0.905706 -0.18328 -0.34445 
-0.824034 -0.10865 -0.368313 -0.878669 -0.131673 -0.383369 -0.732916 -0.0619497 -0.302132 
-0.624921 0.0495087 -0.256488 -0.65862 0.0134697 -0.282423 -0.659362 -0.0361251 -0.272373 
-0.670348 0.0140979 -0.275845 -0.778604 0.00856719 -0.264575 -0.713944 0.0865754 -0.274222 
-0.774315 0.0461134 -0.317059 -0.848954 0.0564275 -0.346669 -0.913654 -0.271425 -0.362931 
-0.929603 -0.0406214 -0.394905 -0.708259 -0.0668759 -0.290591 -0.66533 -0.108643 -0.341067 
-0.668175 0.0324007 -0.265834 -0.943662 0.163204 -0.711345 -0.740596 -0.00665991 -0.320788 
-0.984108 0.105001 -1.12179 -0.726199 -0.078073 -0.314607 -0.910648 -0.0377743 -0.322457 
-0.739749 -0.114055 -0.259594 -0.877736 0.0965708 -0.388316 -0.915227 0.0965351 -0.399423 
-0.745877 -0.0884552 -0.305361 -0.886605 -0.0945204 -0.339338 -0.661905 -0.0362269 -0.278009 
-0.740977 0.106783 -0.0863343 -0.675214 -0.031291 -0.278569 -0.7029 -0.0342868 -0.2974 
-0.504638 0.0772647 -0.20844 -0.835284 0.0249743 -0.322023 -0.810455 0.302215 -0.239966 
-0.744492 0.0238705 -0.327079 -0.964192 -0.148545 -1.05052 -0.961173 -0.181437 -0.519197 
-0.696794 0.0388959 -0.376781 -0.822712 0.0671098 -0.363961 -0.652522 -0.0761342 -0.271868 
-0.676584 0.0220715 -0.297799 -0.596535 0.01598 -0.243689 -0.758196 -0.0503498 -0.333132 
-0.631556 0.0659359 -0.24794 -0.802567 -0.0778633 -0.131957 -0.66616 -0.0883539 -0.247891 
-0.740107 0.176877 -0.345151 -0.575087 -0.0221216 -0.232863 -0.963516 -0.267767 -1.04613 
-0.823482 -0.164586 -0.437799 -0.951382 -0.234366 -0.6377 -0.721139 -0.00429319 -0.302269 
-0.806742 -0.000246133 -0.445949 -0.573906 -0.0705986 -0.229161 -0.495846 0.0528511 -0.205093 
-0.875759 -0.0433322 -0.668879 -0.995587 -0.164014 -0.387996 -0.63773 -0.0228838 -0.264567 
-0.562527 -0.0268223 -0.229808 -1.35874 0.266662 -0.491583 -0.899336 -0.0190136 -0.283346 
-1.02611 0.170517 -0.050555 -0.653651 0.0426027 -0.259462 -0.73148 -0.136244 -0.326639 
-0.643577 0.124224 -0.204854 -0.66354 -0.116474 -0.378178 -0.575203 -0.0784404 -0.237908 
-0.756443 -0.0948702 -0.263556 -0.626925 -0.053688 -0.202309 -0.577628 -0.107844 -0.23717 
-0.51165 0.0182571 -0.242264 -0.663629 0.0276375 -0.278617 -1.04944 0.349647 -0.631383 
-0.736134 0.226686 -0.244816 -0.686158 0.039701 -0.261839 -0.896069 0.127755 -0.321733 
-0.914627 -0.00889765 -0.360181 -0.870901 -0.169688 -0.327735 -0.618367 -0.0108603 -0.258781 
-0.672763 -0.122308 -0.279691 -0.598892 0.0171009 -0.252803 -0.749635 -0.0899396 -0.138704 
-0.582632 0.0487758 -0.420607 -0.753267 -0.192071 -0.401756 -0.57058 -0.134233 -0.242567 
-0.638991 -0.00156228 -0.269201 -0.832952 -0.107125 -0.300785 -0.62375 0.0391085 -0.265194 
-0.570672 -0.0613433 -0.239285 -0.544679 0.00539406 -0.230828 -0.66307 0.0751271 -0.271488 
-0.76641 -0.114194 -0.291202 -0.596334 -0.0792086 -0.208908 -0.742304 -0.020421 -0.473445 
-0.760422 0.0642639 -0.347855 -0.649124 -0.00251717 -0.279012 -0.957814 -0.0608256 -0.512592 
-0.557974 -0.0132145 -0.232222 -0.536857 -0.0703143 -0.212074 -0.536145 -0.0140967 -0.226534 
-0.995843 0.121717 -0.134874 -0.517314 0.0177638 -0.216429 -0.714865 0.198937 -0.318646 
-0.477906 0.00362147 -0.188939 -0.616366 0.0275712 -0.223828 -0.584226 0.0847146 -0.241579 
-1.11898 0.164707 -0.901791 -0.65482 0.0845807 -0.271466 -0.657887 0.124685 -0.233047 
-0.685808 -0.253897 -0.216076 -0.69018 0.195771 -0.237355 -0.527663 -0.00896475 -0.223405 
-0.554513 -0.0835918 -0.230684 -0.602095 -0.073204 -0.244829 -0.471477 -0.049317 -0.179426 
-0.745463 -0.0422829 -0.814537 -0.685504 0.219162 -0.311591 -0.841919 0.0928 -0.438614 
-0.424494 0.0014774 -0.186345 -0.398102 -0.00749908 -0.167064 -0.531756 -0.00354014 -0.218265 
-0.353793 -0.0507783 -0.151061 -0.680825 0.00896507 -0.428446 -0.598538 0.142965 -0.243563 
-0.543651 0.026868 -0.224434 -0.9126 0.102821 -0.427889 -0.882995 -0.081328 -0.379339 
-0.921926 -0.181497 -0.325852 -0.577924 0.0357622 -0.238344 -0.458578 0.072048 -0.190107 
-0.890606 0.102513 -0.826449 -0.405767 -0.080202 -0.23164 -0.681553 0.188019 -0.397988 
-0.682232 -0.0225622 -0.4848 -0.465489 -0.0542726 -0.198868 -0.617257 -0.0303954 -0.316521 
-0.614923 -0.00374827 -0.431371 -0.846334 0.324848 -0.407747 -0.726545 -0.0452741 -0.312146 
-0.573479 -0.0760173 -0.249694 -0.830882 0.133541 -0.801142 -0.616996 -0.191258 -0.225501 
-0.845858 0.149149 -0.247826 -0.370493 -0.00995363 -0.15681 -0.92979 0.00248893 -0.311938 
-0.465024 0.0647876 -0.20917 -0.640926 -0.146777 -0.264524 -0.910919 0.195718 -0.697903 
-0.569884 -0.0943371 -0.240496 -0.879926 0.263668 -0.795083 -0.688801 -0.255398 -0.287848 
-0.87959 0.0385906 -0.422924 -0.52274 -0.0777688 -0.313195 -0.606116 -0.122459 -0.231091 
-0.408917 -0.0414997 -0.177272 -0.549822 0.0159409 -0.229376 -0.504626 0.140951 -0.173663 
-0.605789 0.0124715 -0.253513 -0.576451 0.191016 -0.283938 -0.515347 -0.0507683 -0.19542 
-0.687189 0.243671 -0.479023 -0.771413 -0.0698168 -0.561213 -0.727078 -0.147193 -0.141769 
-0.318056 0.0106316 -0.137504 -0.293853 -0.0985626 -0.0767896 -0.787228 0.23331 -0.781023 
-0.68948 -0.109846 -0.393155 -1.12524 0.234834 -0.511338 -0.746444 -0.106814 -0.55326 
-0.48639 -0.173892 -0.311384 -0.619215 -0.13272 -0.37151 -0.562595 -0.116485 -0.253244 
-0.532926 0.0670105 -0.214587 -0.836046 -0.0890154 -0.326107 -0.647819 -0.121022 -0.239051 
-0.625891 0.205692 -0.501083 -0.572729 -0.227164 -0.442448 -0.738071 -0.0515139 -0.306013 
-0.722121 0.16775 -0.677764 -0.551878 -0.0259989 -0.214595 -0.610341 0.243186 -0.690016 
-0.68817 0.207024 -0.263795 -0.767902 0.244529 -0.317287 -0.773913 0.160607 -0.33985 
-0.688917 -0.330212 -0.339431 -0.725765 0.00910057 -0.664651 -0.681617 -0.0361933 -0.526789 
-0.849389 0.0526837 -0.557501 -0.770323 0.0959318 -0.434189 -0.655459 0.0662517 0.142103 
0 0 -1 0 0 -1 -0.448086 0.0357762 -0.194594 
0 0 -1.00348 0 0 -1.05263 0 0 -1.03703 
0 0 -1.00701 -0.509428 0.108252 -0.216674 0 0 -1.06587 
0 0 -1.0387 0 0 -1 0 0 -1.00672 
0 0 -1.0388 -0.764451 0.0110484 -0.443639 -0.328477 0.0756684 -0.124975 
-0.241324 -0.0267202 -0.136867 -0.793361 -0.0048455 -0.43518 -0.92469 -0.126766 -0.397549 
-0.518241 0.334034 -0.495726 -0.18795 -0.154176 -0.0758261 -0.648678 0.0184973 -0.347276 
-0.57016 -0.111174 -0.176885 -0.473212 -0.329348 -0.147899 -0.812098 0.00164753 -0.124577 
-0.490604 0.34229 0.133648 -0.418363 0.378697 -0.213491 -0.451422 0.221845 -0.154997 
-0.40382 0.0383675 -0.156348 -0.0621593 -0.218972 0.0512908 -0.518014 0.112446 -0.48134 
-0.785715 0.083264 -0.235926 -0.674555 0.082972 -0.503121 -0.419208 0.102894 -0.18197 
-0.49314 -0.36852 -0.0380105 -0.394408 -0.0288783 -0.435188 -0.682979 -0.0175172 -0.145194 
-0.969686 -0.5386 -0.00586163 -0.324685 -0.139976 -0.192546 -0.676977 -0.232813 -0.328586 
-0.467138 0.119299 -0.174907 -0.289787 0.00269581 -0.148831 -0.725967 0.298908 0.0761215 
-0.805838 0.0231037 -0.110923 -0.209593 0.0728108 -0.142679 -0.724166 0.00934048 0.198687 
-0.733544 0.106303 -0.48084 -0.106973 -0.203501 -0.0430046 -0.549188 0.245346 -0.183047 
-0.784717 -0.283431 -0.0827102 -0.618506 -0.143009 -0.251821 -0.713808 -0.151599 -0.218026 
-0.696419 -0.326852 -0.419329 -0.736483 -0.225771 0.0643881 -0.300866 -0.118665 -0.078771 
-0.65589 -0.0639883 0.0756286 -0.556323 0.107638 -0.0818878 -0.835793 0.24325 -0.380356 
-1.03786 -0.0253947 -0.291615 -0.726455 0.299109 -0.106908 -0.724992 0.298507 -0.0262098 
-0.742346 0.180407 0.0449608 -0.376585 -0.0267059 -0.279649 -0.188129 -0.024008 0.0731765 
-0.136578 -0.127619 -1.02263 -0.71468 -0.146817 -0.383951 -0.74408 -0.0167373 0.152603 
-0.746092 -0.0167825 0.173486 -0.713044 -0.452665 0.139808 -0.463798 0.186138 -0.0155245 
-0.707855 -0.259773 -0.072562 -0.387494 0.216289 -0.189763 -0.384765 -0.00599447 -0.0732568 
-0.304901 0.0639901 0.0074465 -0.537276 0.145278 -0.0666845 -0.701984 0.28882 -0.201057 