# vtk DataFile Version 4.0
Generated by LIGGGHTS
ASCII
DATASET POLYDATA
POINTS 810 float
-0.232608 -0.0939772 -0.150765 -0.205692 0.0364624 -0.187752 -0.205955 0.00579726 -0.19168 
-0.20343 0.000975694 -0.191744 -0.205152 -0.019085 -0.191133 -0.206169 -0.00637771 -0.191806 
-0.204617 0.0147898 -0.183826 -0.202011 -0.0151773 -0.189143 -0.201675 0.0212193 -0.189491 
-0.244097 0.077591 -0.178363 -0.200984 -0.0090813 -0.189374 -0.201592 0.0241324 -0.188839 
-0.205583 -0.0121448 -0.190955 -0.472886 -0.0298086 -0.384065 -0.461892 -0.00757489 -0.384221 
-0.474594 0.00445666 -0.38274 -0.472807 -0.00394334 -0.381194 -0.466404 -0.00407809 -0.377089 
-0.433385 0.0317715 -0.375849 -0.453466 -0.0198615 -0.37196 -0.461793 -0.0109892 -0.372466 
-0.462412 -0.0213692 -0.368119 -0.43499 0.0167675 -0.367707 -0.45337 0.0361642 -0.370032 
-0.455473 -0.00259206 -0.366047 -0.45366 0.031951 -0.365228 -0.440485 0.0264587 -0.361063 
-0.459615 -0.00708217 -0.359222 -0.451874 -0.003369 -0.356925 -0.460913 -0.0303609 -0.353632 
-0.43953 -0.0101447 -0.355072 -0.419787 -0.00327695 -0.355604 -0.430247 0.00595165 -0.3529 
-0.449341 0.0216915 -0.353017 -0.443352 -0.0215552 -0.35043 -0.435247 0.00512181 -0.351127 
-0.42843 0.0184659 -0.350004 -0.439558 0.00400224 -0.345907 -0.413103 0.0126055 -0.345532 
-0.442372 -0.0173677 -0.342865 -0.430393 0.00688934 -0.341475 -0.434574 -0.0161412 -0.337884 
-0.45666 -0.00871654 -0.339826 -0.439245 -0.00259691 -0.340073 -0.43403 0.00052349 -0.337348 
-0.419723 0.00403 -0.339104 -0.437401 0.00729253 -0.340497 -0.438206 0.0112583 -0.337963 
-0.425504 0.00373546 -0.334126 -0.429283 0.0103372 -0.333892 -0.436503 0.000698403 -0.331508 
-0.426972 -0.0111674 -0.326334 -0.425446 -0.00337043 -0.32849 -0.420517 0.000962402 -0.327632 
-0.423925 -0.0160973 -0.324084 -0.420083 0.00322647 -0.322558 -0.426004 0.008566 -0.326178 
-0.420917 -0.0186265 -0.315415 -0.406277 -0.011761 -0.317896 -0.414976 -0.00537189 -0.317687 
-0.404557 -0.00591722 -0.315298 -0.4216 0.0107503 -0.317337 -0.42659 0.0255763 -0.315365 
-0.416055 -0.00793697 -0.312519 -0.415188 0.00879752 -0.312865 -0.415562 0.0145768 -0.312854 
-0.420171 0.0221461 -0.312116 -0.418422 -0.0127715 -0.308966 -0.415981 -0.00881164 -0.306596 
-0.40587 0.000140206 -0.304431 -0.404071 0.00839301 -0.306927 -0.405766 0.0106718 -0.305584 
-0.416979 0.0305552 -0.30749 -0.411898 -0.0142293 -0.302988 -0.396031 0.00363756 -0.301665 
-0.388407 0.00385046 -0.302692 -0.409358 0.0134479 -0.302782 -0.395186 -0.009769 -0.292253 
-0.396619 -0.00706044 -0.293314 -0.388483 0.0182486 -0.294622 -0.387442 -0.0143852 -0.288398 
-0.396013 0.00623243 -0.289821 -0.390199 0.00425182 -0.291208 -0.386031 0.00460186 -0.290348 
-0.392935 0.0132482 -0.28905 -0.383668 -0.00936895 -0.286158 -0.384008 0.00289742 -0.287482 
-0.393385 0.0222767 -0.288081 -0.385927 -0.0143099 -0.284023 -0.383529 -0.0126412 -0.28295 
-0.381552 -0.00938081 -0.281182 -0.3857 0.00878943 -0.28375 -0.381145 -0.0150643 -0.280308 
-0.375725 -0.0166676 -0.278323 -0.37322 -0.000376011 -0.273937 -0.365635 -0.016392 -0.270379 
-0.374114 -0.0122829 -0.271186 -0.375026 -0.00712365 -0.272932 -0.368403 -0.00659004 -0.271693 
-0.362768 -0.00755842 -0.272315 -0.36999 0.00824105 -0.271172 -0.374127 -0.0265451 -0.267062 
-0.374157 -0.0205661 -0.267524 -0.368817 -0.0197637 -0.267978 -0.367597 -0.0120255 -0.267221 
-0.36565 0.000429934 -0.26597 -0.361299 0.00741794 -0.265584 -0.360427 0.0112823 -0.265312 
-0.36398 0.0163046 -0.267241 -0.376759 -0.0388492 -0.264928 -0.364676 -0.0154948 -0.264695 
-0.360287 -0.0131079 -0.261587 -0.363205 -0.0102079 -0.263447 -0.360171 -0.0045755 -0.264726 
-0.360745 0.0039094 -0.262947 -0.358454 0.0191933 -0.262713 -0.356187 0.0171218 -0.262148 
-0.365351 0.025826 -0.265101 -0.365688 0.0322984 -0.263975 -0.358598 -0.015781 -0.260372 
-0.355921 0.0128772 -0.260621 -0.353738 0.0175433 -0.258239 -0.350477 -0.0106077 -0.255868 
-0.348398 0.00491206 -0.256703 -0.352458 0.0087861 -0.256567 -0.346616 0.00695294 -0.253199 
-0.349337 0.0118538 -0.255725 -0.347431 -0.0165102 -0.252603 -0.341608 -0.0118456 -0.250154 
-0.343294 -0.00815456 -0.252523 -0.340932 -0.00565312 -0.250021 -0.342734 -0.0020676 -0.252676 
-0.338986 -0.000613824 -0.25243 -0.341792 0.0043967 -0.25155 -0.33836 0.00651736 -0.250709 
-0.341212 0.00934061 -0.251298 -0.350625 0.0182047 -0.253314 -0.342902 -0.0334686 -0.245658 
-0.340509 -0.0272607 -0.246776 -0.340652 -0.0224926 -0.248053 -0.337416 -0.018916 -0.247182 
-0.338971 -0.0157186 -0.248734 -0.334997 -0.0148652 -0.246581 -0.336696 -0.0131333 -0.248999 
-0.337534 -0.0084419 -0.247546 -0.335526 -0.00224477 -0.248457 -0.330832 -0.000564892 -0.24649 
-0.329142 -0.0028133 -0.244841 -0.337049 0.00177952 -0.248336 -0.333045 0.00284156 -0.24739 
-0.330111 0.00565036 -0.245159 -0.338745 0.00830374 -0.247252 -0.336466 0.0100309 -0.248153 
-0.332703 0.00688378 -0.246738 -0.33591 0.0135376 -0.246307 -0.332982 -0.0102225 -0.245091 
-0.327847 -0.0110211 -0.243577 -0.329234 -0.00711461 -0.243524 -0.338779 -0.00368458 -0.245078 
-0.327108 -0.0021405 -0.242521 -0.326884 0.000481677 -0.244384 -0.332024 0.00220706 -0.242968 
-0.324321 0.00145726 -0.242702 -0.327523 0.00466355 -0.242066 -0.334067 0.00982899 -0.242078 
-0.32681 0.0100744 -0.242311 -0.322831 0.0100301 -0.241453 -0.32377 0.0130487 -0.241838 
-0.326381 -0.016798 -0.242204 -0.317253 -0.0190099 -0.238046 -0.31685 -0.0158243 -0.238459 
-0.318653 -0.0114182 -0.238745 -0.313597 -0.0075355 -0.238062 -0.317284 0.000729538 -0.238802 
-0.312697 -0.000104423 -0.237988 -0.321512 0.00586723 -0.240258 -0.316073 0.00729944 -0.237876 
-0.318917 0.00968973 -0.240007 -0.314546 0.0115622 -0.23803 -0.322095 0.0159643 -0.239365 
-0.327416 0.0204107 -0.241984 -0.316687 -0.0206952 -0.235444 -0.315908 -0.0137019 -0.235233 
-0.307545 -0.0148939 -0.23463 -0.30918 -0.00789107 -0.236213 -0.316526 -0.00434171 -0.237842 
-0.314258 -0.00692379 -0.235203 -0.31143 -0.0027441 -0.237257 -0.339192 -0.00128881 -0.237927 
-0.306408 -0.00152948 -0.234204 -0.311855 0.00786901 -0.237149 -0.312221 0.0131279 -0.236829 
-0.313993 0.0178444 -0.235702 -0.320642 0.0207635 -0.237911 -0.324362 -0.0392136 -0.233577 
-0.30286 -0.0179482 -0.232202 -0.303318 -0.0139176 -0.231995 -0.302799 -0.0089485 -0.232325 
-0.302355 -0.00388455 -0.232411 -0.298088 -0.00600698 -0.23162 -0.295183 -0.0181215 -0.229045 
-0.292337 -0.0076009 -0.229139 -0.289955 -0.00478928 -0.228232 -0.293641 0.000476104 -0.228851 
-0.296954 0.00415197 -0.230016 -0.293973 0.00715572 -0.229628 -0.294318 0.0101882 -0.229606 
-0.295779 0.0144597 -0.228762 -0.290809 0.0142258 -0.227834 -0.299242 0.0194689 -0.22923 
-0.292583 0.0171667 -0.228001 -0.294096 0.0206123 -0.227941 -0.306547 0.0263773 -0.230971 
-0.301421 0.0244972 -0.230259 -0.303146 0.0370394 -0.227147 -0.308392 0.0374385 -0.229094 
-0.282099 -0.0115395 -0.223338 -0.289497 -0.00904316 -0.226719 -0.286873 -0.00348703 -0.225892 
-0.281665 0.00530026 -0.224581 -0.279451 -0.0175622 -0.222582 -0.276383 -0.0172928 -0.221353 
-0.278561 -0.0133089 -0.222746 -0.271918 -0.00899952 -0.220427 -0.273283 -0.00479062 -0.221202 
-0.269116 -0.00197618 -0.219547 -0.274559 0.00417659 -0.220615 -0.27754 0.00904318 -0.221569 
-0.272751 0.0120331 -0.220503 -0.293263 0.0411915 -0.221494 -0.26688 -0.0145524 -0.217689 
-0.268252 -0.00495352 -0.218359 -0.26292 -0.00564222 -0.216795 -0.266172 -0.00171132 -0.218313 
-0.266228 0.00495334 -0.218131 -0.269192 0.00955278 -0.218423 -0.282841 0.0147611 -0.220639 
-0.268831 0.0149221 -0.218419 -0.264013 0.0166708 -0.216104 -0.270578 0.017966 -0.218657 
-0.272964 0.0218852 -0.217906 -0.269422 0.0239929 -0.217207 -0.273889 0.0286406 -0.217801 
-0.273932 0.0315238 -0.216958 -0.283088 -0.0360175 -0.212945 -0.264688 -0.018631 -0.216247 
-0.259766 -0.00956123 -0.214199 -0.256424 -0.00615385 -0.212734 -0.258039 -0.00305721 -0.214813 
-0.259277 -0.000344712 -0.215328 -0.261796 0.00279421 -0.21528 -0.257733 0.00506522 -0.214534 
-0.264536 0.0125313 -0.215506 -0.265577 0.0204418 -0.215078 -0.26132 0.0221084 -0.213049 
-0.264854 -0.0318181 -0.212137 -0.257217 -0.0296422 -0.210666 -0.247694 0.00159442 -0.210436 
-0.250333 0.00413427 -0.211454 -0.254884 0.00939006 -0.212515 -0.274042 0.0124352 -0.211219 
-0.259009 0.0129211 -0.213205 -0.261538 0.0317721 -0.211864 -0.255262 0.0287121 -0.210123 
-0.277221 -0.0569395 -0.206813 -0.237065 -0.00756282 -0.205689 -0.237343 -0.00160917 -0.206166 
-0.256289 0.0170701 -0.207734 -0.244978 0.0203153 -0.207588 -0.253562 0.022223 -0.209802 
-0.252129 0.0303516 -0.207259 -0.252221 -0.041677 -0.204872 -0.235579 -0.0271889 -0.202271 
-0.23899 -0.0193665 -0.205311 -0.239976 -0.0151182 -0.205254 -0.235239 0.00263441 -0.203844 
-0.237627 0.0138976 -0.205439 -0.234928 0.020401 -0.203413 -0.22546 -0.00520629 -0.199902 
-0.226797 -0.000396319 -0.201633 -0.254839 0.00549573 -0.202792 -0.221768 0.00714075 -0.199346 
-0.227682 0.0161431 -0.200217 -0.228246 0.0227692 -0.200306 -0.266467 0.0292989 -0.2012 
-0.238238 0.0273121 -0.202296 -0.227016 0.0266269 -0.198915 -0.236869 -0.0422543 -0.197215 
-0.220443 -0.015727 -0.19796 -0.218858 -0.012122 -0.197628 -0.212401 -0.0127188 -0.194876 
-0.214074 -0.00795523 -0.194942 -0.22417 -0.00596329 -0.195832 -0.210948 -0.0024295 -0.194888 
-0.212988 0.00278203 -0.195732 -0.218945 0.00559429 -0.19677 -0.217981 0.0159078 -0.195779 
-0.226436 0.0327892 -0.196063 -0.210614 -0.02244 -0.192973 -0.210035 -0.0190959 -0.193198 
-0.207571 -0.0152283 -0.192545 -0.208082 -0.000968497 -0.193121 -0.21157 0.00822689 -0.193984 
-0.21415 0.0189358 -0.193774 -0.208647 0.0187064 -0.19267 -0.21301 0.0248681 -0.193463 
-0.224532 -0.0531419 -0.188915 -0.208885 -0.0324234 -0.18995 -0.207031 -0.0240178 -0.190032 
-0.212916 0.0309224 -0.190936 -0.212967 0.0442745 -0.187991 -0.208727 0.0472239 -0.185256 
-0.212879 0.0538219 -0.18376 -0.202457 -0.0261395 -0.188779 -0.201812 0.00623371 -0.191035 
-0.2012 0.00272284 -0.190691 -0.0525433 0.0189694 -0.127192 -0.0575569 0.0235906 -0.12802 
[...]
POINT_DATA 810
FIELD FieldData 7
id 1 810 int
499 459 469 466 363 434 550 422 480 
477 433 525 408 203 186 90 78 127 
257 113 128 232 135 281 238 327 227 
165 228 171 204 121 265 198 144 246 
234 153 161 194 202 224 347 191 170 
183 97 178 141 215 230 117 123 372 
102 164 277 290 209 287 185 199 258 
218 206 278 151 205 211 129 259 131 
223 275 152 262 210 314 260 292 282 
271 243 155 299 252 239 300 119 302 
293 342 214 149 279 295 189 219 180 
220 208 320 348 286 115 190 236 289 
309 337 355 212 193 301 256 288 184 
325 272 221 318 311 315 207 266 324 
323 413 317 106 217 251 172 254 250 
160 319 297 338 365 312 249 403 313 
229 169 107 225 341 284 333 308 197 
310 242 255 379 280 179 346 235 307 
168 269 267 370 261 352 350 321 359 
253 425 344 283 240 306 345 213 380 
264 405 406 373 378 305 391 247 396 
330 322 389 294 332 381 237 303 316 
241 285 336 376 226 331 354 334 411 
384 173 383 392 401 356 504 339 404 
393 329 291 402 328 335 248 441 296 
388 395 367 326 463 371 358 273 374 
426 377 438 414 429 298 419 362 448 
439 456 386 432 409 349 415 394 447 
468 369 407 535 437 276 400 424 457 
481 490 423 398 385 428 584 410 421 
496 360 467 452 443 473 442 399 470 
465 382 513 540 475 510 446 502 523 
195 387 472 343 462 451 427 471 357 
494 460 430 351 500 458 431 390 397 
618 464 484 483 449 461 436 418 478 
375 723 724 755 732 738 476 704 672 
750 718 412 795 340 364 416 353 440 
695 417 663 568 455 492 479 554 435 
368 450 453 509 533 690 518 508 543 
522 482 505 495 538 558 530 728 537 
541 526 501 546 515 420 582 444 529 
507 566 573 596 361 454 561 556 445 
493 603 553 489 498 514 512 366 545 
563 531 503 488 551 491 528 548 572 
574 578 630 560 520 581 487 497 559 
611 589 576 599 542 588 474 549 524 
547 511 565 527 594 604 532 619 506 
517 521 591 534 615 519 577 627 555 
552 562 557 654 609 583 598 633 586 
620 624 516 676 486 567 614 628 602 
485 650 656 564 587 658 570 580 682 
711 610 595 661 617 645 571 625 606 
644 575 621 655 629 635 647 608 640 
634 636 616 544 632 607 585 673 641 
536 600 590 613 721 683 643 669 681 
539 631 698 685 734 637 592 657 674 
662 612 668 569 697 597 593 653 671 
692 648 702 622 742 638 649 660 675 
666 665 677 680 642 720 651 626 601 
688 623 667 646 639 713 678 670 684 
679 652 717 719 703 744 736 694 664 
747 712 699 691 775 696 700 715 701 
686 263 727 737 733 707 730 722 716 
725 708 709 748 776 756 771 964 714 
970 759 762 960 741 969 959 579 967 
693 766 739 753 746 687 763 689 752 
743 971 751 729 803 764 789 706 813 
761 740 791 805 710 781 773 770 782 
802 788 774 794 812 787 800 810 772 
735 790 796 768 809 816 749 758 726 
783 765 821 731 797 780 798 808 792 
793 828 811 754 760 786 824 799 825 
826 801 705 659 804 823 815 814 807 
757 785 784 829 817 767 777 806 827 
778 822 769 779 818 819 745 820 830 
836 834 841 840 839 838 835 842 831 
833 837 832 853 852 851 605 846 849 
855 847 844 854 845 850 848 843 864 
856 861 858 857 860 867 863 868 865 
866 859 874 862 881 870 877 880 878 
871 879 876 873 875 869 872 894 883 
892 887 891 882 885 889 884 888 890 
893 886 900 898 902 896 906 905 897 
907 899 904 903 901 895 911 914 917 
919 915 913 916 920 909 910 918 912 
908 924 933 930 923 927 929 931 928 
925 922 921 926 932 945 935 944 943 
940 941 946 936 939 937 938 934 942 
957 953 948 956 947 954 951 955 958 
952 949 950 966 968 961 963 965 962 

type 1 810 int
1 1 1 1 1 1 1 1 1 
1 1 1 1 1 1 1 1 1 
1 1 1 1 1 1 1 1 1 
1 1 1 1 1 1 1 1 1 
1 1 1 1 1 1 1 1 1 
1 1 1 1 1 1 1 1 1 
1 1 1 1 1 1 1 1 1 
1 1 1 1 1 1 1 1 1 
1 1 1 1 1 1 1 1 1 
1 1 1 1 1 1 1 1 1 
1 1 1 1 1 1 1 1 1 
1 1 1 1 1 1 1 1 1 
1 1 1 1 1 1 1 1 1 
1 1 1 1 1 1 1 1 1 
1 1 1 1 1 1 1 1 1 
1 1 1 1 1 1 1 1 1 
1 1 1 1 1 1 1 1 1 
1 1 1 1 1 1 1 1 1 
1 1 1 1 1 1 1 1 1 
1 1 1 1 1 1 1 1 1 
1 1 1 1 1 1 1 1 1 
1 1 1 1 1 1 1 1 1 
1 1 1 1 1 1 1 1 1 
1 1 1 1 1 1 1 1 1 
1 1 1 1 1 1 1 1 1 
1 1 1 1 1 1 1 1 1 
1 1 1 1 1 1 1 1 1 
1 1 1 1 1 1 1 1 1 
1 1 1 1 1 1 1 1 1 
1 1 1 1 1 1 1 1 1 
1 1 1 1 1 1 1 1 1 
1 1 1 1 1 1 1 1 1 
1 1 1 1 1 1 1 1 1 
1 1 1 1 1 1 1 1 1 
1 1 1 1 1 1 1 1 1 
1 1 1 1 1 1 1 1 1 
1 1 1 1 1 1 1 1 1 
1 1 1 1 1 1 1 1 1 
1 1 1 1 1 1 1 1 1 
1 1 1 1 1 1 1 1 1 
1 1 1 1 1 1 1 1 1 
1 1 1 1 1 1 1 1 1 
1 1 1 1 1 1 1 1 1 
1 1 1 1 1 1 1 1 1 
1 1 1 1 1 1 1 1 1 
1 1 1 1 1 1 1 1 1 
1 1 1 1 1 1 1 1 1 
1 1 1 1 1 1 1 1 1 
1 1 1 1 1 1 1 1 1 
1 1 1 1 1 1 1 1 1 
1 1 1 1 1 1 1 1 1 
1 1 1 1 1 1 1 1 1 
1 1 1 1 1 1 1 1 1 
1 1 1 1 1 1 1 1 1 
1 1 1 1 1 1 1 1 1 
1 1 1 1 1 1 1 1 1 
1 1 1 1 1 1 1 1 1 
1 1 1 1 1 1 1 1 1 
1 1 1 1 1 1 1 1 1 
1 1 1 1 1 1 1 1 1 
1 1 1 1 1 1 1 1 1 
1 1 1 1 1 1 1 1 1 
1 1 1 1 1 1 1 1 1 
1 1 1 1 1 1 1 1 1 
1 1 1 1 1 1 1 1 1 
1 1 1 1 1 1 1 1 1 
1 1 1 1 1 1 1 1 1 
1 1 1 1 1 1 1 1 1 
1 1 1 1 1 1 1 1 1 
1 1 1 1 1 1 1 1 1 
1 1 1 1 1 1 1 1 1 
1 1 1 1 1 1 1 1 1 
1 1 1 1 1 1 1 1 1 
1 1 1 1 1 1 1 1 1 
1 1 1 1 1 1 1 1 1 
1 1 1 1 1 1 1 1 1 
1 1 1 1 1 1 1 1 1 
1 1 1 1 1 1 1 1 1 
1 1 1 1 1 1 1 1 1 
1 1 1 1 1 1 1 1 1 
1 1 1 1 1 1 1 1 1 
1 1 1 1 1 1 1 1 1 
1 1 1 1 1 1 1 1 1 
1 1 1 1 1 1 1 1 1 
1 1 1 1 1 1 1 1 1 
1 1 1 1 1 1 1 1 1 
1 1 1 1 1 1 1 1 1 
1 1 1 1 1 1 1 1 1 
1 1 1 1 1 1 1 1 1 
1 1 1 1 1 1 1 1 1 

i 3 810 int
0 0 0 0 0 0 0 0 0 
0 0 0 0 0 0 0 0 0 
0 0 0 0 0 0 0 0 0 
0 0 0 0 0 0 0 0 0 
0 0 0 0 0 0 0 0 0 
0 0 0 0 0 0 0 0 0 
0 0 0 0 0 0 0 0 0 
0 0 0 0 0 0 0 0 0 
0 0 0 0 0 0 0 0 0 
0 0 0 0 0 0 0 0 0 
0 0 0 0 0 0 0 0 0 
0 0 0 0 0 0 0 0 0 
0 0 0 0 0 0 0 0 0 
0 0 0 0 0 0 0 0 0 
0 0 0 0 0 0 0 0 0 
0 0 0 0 0 0 0 0 0 
0 0 0 0 0 0 0 0 0 
0 0 0 0 0 0 0 0 0 
0 0 0 0 0 0 0 0 0 
0 0 0 0 0 0 0 0 0 
0 0 0 0 0 0 0 0 0 
0 0 0 0 0 0 0 0 0 
0 0 0 0 0 0 0 0 0 
0 0 0 0 0 0 0 0 0 
0 0 0 0 0 0 0 0 0 
0 0 0 0 0 0 0 0 0 
0 0 0 0 0 0 0 0 0 
0 0 0 0 0 0 0 0 0 
0 0 0 0 0 0 0 0 0 
0 0 0 0 0 0 0 0 0 
0 0 0 0 0 0 0 0 0 
0 0 0 0 0 0 0 0 0 
0 0 0 0 0 0 0 0 0 
0 0 0 0 0 0 0 0 0 
0 0 0 0 0 0 0 0 0 
0 0 0 0 0 0 0 0 0 
0 0 0 0 0 0 0 0 0 
0 0 0 0 0 0 0 0 0 
0 0 0 0 0 0 0 0 0 
0 0 0 0 0 0 0 0 0 
0 0 0 0 0 0 0 0 0 
0 0 0 0 0 0 0 0 0 
0 0 0 0 0 0 0 0 0 
0 0 0 0 0 0 0 0 0 
0 0 0 0 0 0 0 0 0 
0 0 0 0 0 0 0 0 0 
0 0 0 0 0 0 0 0 0 
0 0 0 0 0 0 0 0 0 
0 0 0 0 0 0 0 0 0 
0 0 0 0 0 0 0 0 0 
0 0 0 0 0 0 0 0 0 
0 0 0 0 0 0 0 0 0 
0 0 0 0 0 0 0 0 0 
0 0 0 0 0 0 0 0 0 
0 0 0 0 0 0 0 0 0 
0 0 0 0 0 0 0 0 0 
0 0 0 0 0 0 0 0 0 
0 0 0 0 0 0 0 0 0 
0 0 0 0 0 0 0 0 0 
0 0 0 0 0 0 0 0 0 
0 0 0 0 0 0 0 0 0 
0 0 0 0 0 0 0 0 0 
0 0 0 0 0 0 0 0 0 
0 0 0 0 0 0 0 0 0 
0 0 0 0 0 0 0 0 0 
0 0 0 0 0 0 0 0 0 
0 0 0 0 0 0 0 0 0 
0 0 0 0 0 0 0 0 0 
0 0 0 0 0 0 0 0 0 
0 0 0 0 0 0 0 0 0 
0 0 0 0 0 0 0 0 0 
0 0 0 0 0 0 0 0 0 
0 0 0 0 0 0 0 0 0 
0 0 0 0 0 0 0 0 0 
0 0 0 0 0 0 0 0 0 
0 0 0 0 0 0 0 0 0 
0 0 0 0 0 0 0 0 0 
0 0 0 0 0 0 0 0 0 
0 0 0 0 0 0 0 0 0 
0 0 0 0 0 0 0 0 0 
0 0 0 0 0 0 0 0 0 
0 0 0 0 0 0 0 0 0 
0 0 0 0 0 0 0 0 0 
0 0 0 0 0 0 0 0 0 
0 0 0 0 0 0 0 0 0 
0 0 0 0 0 0 0 0 0 
0 0 0 0 0 0 0 0 0 
0 0 0 0 0 0 0 0 0 
0 0 0 0 0 0 0 0 0 
0 0 0 0 0 0 0 0 0 
0 0 0 0 0 0 0 0 0 
0 0 0 0 0 0 0 0 0 
0 0 0 0 0 0 0 0 0 
0 0 0 0 0 0 0 0 0 
0 0 0 0 0 0 0 0 0 
0 0 0 0 0 0 0 0 0 
0 0 0 0 0 0 0 0 0 
0 0 0 0 0 0 0 0 0 
0 0 0 0 0 0 0 0 0 
0 0 0 0 0 0 0 0 0 
0 0 0 0 0 0 0 0 0 
0 0 0 0 0 0 0 0 0 
0 0 0 0 0 0 0 0 0 
0 0 0 0 0 0 0 0 0 
0 0 0 0 0 0 0 0 0 
0 0 0 0 0 0 0 0 0 
0 0 0 0 0 0 0 0 0 
0 0 0 0 0 0 0 0 0 
0 0 0 0 0 0 0 0 0 
0 0 0 0 0 0 0 0 0 
0 0 0 0 0 0 0 0 0 
0 0 0 0 0 0 0 0 0 
0 0 0 0 0 0 0 0 0 
0 0 0 0 0 0 0 0 0 
0 0 0 0 0 0 0 0 0 
0 0 0 0 0 0 0 0 0 
0 0 0 0 0 0 0 0 0 
0 0 0 0 0 0 0 0 0 
0 0 0 0 0 0 0 0 0 
0 0 0 0 0 0 0 0 0 
0 0 0 0 0 0 0 0 0 
0 0 0 0 0 0 0 0 0 
0 0 0 0 0 0 0 0 0 
0 0 0 0 0 0 0 0 0 
0 0 0 0 0 0 0 0 0 
0 0 0 0 0 0 0 0 0 
0 0 0 0 0 0 0 0 0 
0 0 0 0 0 0 0 0 0 
0 0 0 0 0 0 0 0 0 
0 0 0 0 0 0 0 0 0 
0 0 0 0 0 0 0 0 0 
0 0 0 0 0 0 0 0 0 
0 0 0 0 0 0 0 0 0 
0 0 0 0 0 0 0 0 0 
0 0 0 0 0 0 0 0 0 
0 0 0 0 0 0 0 0 0 
0 0 0 0 0 0 0 0 0 
0 0 0 0 0 0 0 0 0 
0 0 0 0 0 0 0 0 0 
0 0 0 0 0 0 0 0 0 
0 0 0 0 0 0 0 0 0 
0 0 0 0 0 0 0 0 0 
0 0 0 0 0 0 0 0 0 
0 0 0 0 0 0 0 0 0 
0 0 0 0 0 0 0 0 0 
0 0 0 0 0 0 0 0 0 
0 0 0 0 0 0 0 0 0 
0 0 0 0 0 0 0 0 0 
0 0 0 0 0 0 0 0 0 
0 0 0 0 0 0 0 0 0 
0 0 0 0 0 0 0 0 0 
0 0 0 0 0 0 0 0 0 
0 0 0 0 0 0 0 0 0 
0 0 0 0 0 0 0 0 0 
0 0 0 0 0 0 0 0 0 
0 0 0 0 0 0 0 0 0 
0 0 0 0 0 0 0 0 0 
0 0 0 0 0 0 0 0 0 
0 0 0 0 0 0 0 0 0 
0 0 0 0 0 0 0 0 0 
0 0 0 0 0 0 0 0 0 
0 0 0 0 0 0 0 0 0 
0 0 0 0 0 0 0 0 0 
0 0 0 0 0 0 0 0 0 
0 0 0 0 0 0 0 0 0 
0 0 0 0 0 0 0 0 0 
0 0 0 0 0 0 0 0 0 
0 0 0 0 0 0 0 0 0 
0 0 0 0 0 0 0 0 0 
0 0 0 0 0 0 0 0 0 
0 0 0 0 0 0 0 0 0 
0 0 0 0 0 0 0 0 0 
0 0 0 0 0 0 0 0 0 
0 0 0 0 0 0 0 0 0 
0 0 0 0 0 0 0 0 0 
0 0 0 0 0 0 0 0 0 
0 0 0 0 0 0 0 0 0 
0 0 0 0 0 0 0 0 0 
0 0 0 0 0 0 0 0 0 
0 0 0 0 0 0 0 0 0 
0 0 0 0 0 0 0 0 0 
0 0 0 0 0 0 0 0 0 
0 0 0 0 0 0 0 0 0 
0 0 0 0 0 0 0 0 0 
0 0 0 0 0 0 0 0 0 
0 0 0 0 0 0 0 0 0 
0 0 0 0 0 0 0 0 0 
0 0 0 0 0 0 0 0 0 
0 0 0 0 0 0 0 0 0 
0 0 0 0 0 0 0 0 0 
0 0 0 0 0 0 0 0 0 
0 0 0 0 0 0 0 0 0 
0 0 0 0 0 0 0 0 0 
0 0 0 0 0 0 0 0 0 
0 0 0 0 0 0 0 0 0 
0 0 0 0 0 0 0 0 0 
0 0 0 0 0 0 0 0 0 
0 0 0 0 0 0 0 0 0 
0 0 0 0 0 0 0 0 0 
0 0 0 0 0 0 0 0 0 
0 0 0 0 0 0 0 0 0 
0 0 0 0 0 0 0 0 0 
0 0 0 0 0 0 0 0 0 
0 0 0 0 0 0 0 0 0 
0 0 0 0 0 0 0 0 0 
0 0 0 0 0 0 0 0 0 
0 0 0 0 0 0 0 0 0 
0 0 0 0 0 0 0 0 0 
0 0 0 0 0 0 0 0 0 
0 0 0 0 0 0 0 0 0 
0 0 0 0 0 0 0 0 0 
0 0 0 0 0 0 0 0 0 
0 0 0 0 0 0 0 0 0 
0 0 0 0 0 0 0 0 0 
0 0 0 0 0 0 0 0 0 
0 0 0 0 0 0 0 0 0 
0 0 0 0 0 0 0 0 0 
0 0 0 0 0 0 0 0 0 
0 0 0 0 0 0 0 0 0 
0 0 0 0 0 0 0 0 0 
0 0 0 0 0 0 0 0 0 
0 0 0 0 0 0 0 0 0 
0 0 0 0 0 0 0 0 0 
0 0 0 0 0 0 0 0 0 
0 0 0 0 0 0 0 0 0 
0 0 0 0 0 0 0 0 0 
0 0 0 0 0 0 0 0 0 
0 0 0 0 0 0 0 0 0 
0 0 0 0 0 0 0 0 0 
0 0 0 0 0 0 0 0 0 
0 0 0 0 0 0 0 0 0 
0 0 0 0 0 0 0 0 0 
0 0 0 0 0 0 0 0 0 
0 0 0 0 0 0 0 0 0 
0 0 0 0 0 0 0 0 0 
0 0 0 0 0 0 0 0 0 
0 0 0 0 0 0 0 0 0 
0 0 0 0 0 0 0 0 0 
0 0 0 0 0 0 0 0 0 
0 0 0 0 0 0 0 0 0 
0 0 0 0 0 0 0 0 0 
0 0 0 0 0 0 0 0 0 
0 0 0 0 0 0 0 0 0 
0 0 0 0 0 0 0 0 0 
0 0 0 0 0 0 0 0 0 
0 0 0 0 0 0 0 0 0 
0 0 0 0 0 0 0 0 0 
0 0 0 0 0 0 0 0 0 
0 0 0 0 0 0 0 0 0 
0 0 0 0 0 0 0 0 0 
0 0 0 0 0 0 0 0 0 
0 0 0 0 0 0 0 0 0 
0 0 0 0 0 0 0 0 0 
0 0 0 0 0 0 0 0 0 
0 0 0 0 0 0 0 0 0 
0 0 0 0 0 0 0 0 0 
0 0 0 0 0 0 0 0 0 
0 0 0 0 0 0 0 0 0 
0 0 0 0 0 0 0 0 0 
0 0 0 0 0 0 0 0 0 
0 0 0 0 0 0 0 0 0 
0 0 0 0 0 0 0 0 0 
0 0 0 0 0 0 0 0 0 
0 0 0 0 0 0 0 0 0 
0 0 0 0 0 0 0 0 0 
0 0 0 0 0 0 0 0 0 
0 0 0 0 0 0 0 0 0 
0 0 0 0 0 0 0 0 0 
0 0 0 0 0 0 0 0 0 
0 0 0 0 0 0 0 0 0 

v 3 810 double
-0.906766 0.232099 -0.552418 -0.962142 -0.168451 -0.457743 -0.877669 -0.0407154 -0.36542 
-0.777536 0.0247785 -0.318473 -0.735558 -0.0672004 -0.298208 -0.862196 -0.0606625 -0.343677 
-1.15668 0.0345358 -0.55228 -0.741449 0.051004 -0.336486 -0.78001 0.000789636 -0.34256 
-0.836015 -0.296352 -0.566227 -0.79771 -0.0389455 -0.325975 -0.844558 -0.0697857 -0.352885 
-0.769019 0.0302671 -0.320175 -1.12302 -0.0308751 -1.74952 -1.07286 0.014188 -1.73566 
-1.13972 0.0204263 -1.69673 -1.17602 -0.00161866 -1.72612 -1.13557 -0.0484089 -1.67856 
-0.862739 0.0954789 -1.7237 -1.07652 -0.198395 -1.66609 -1.12182 -0.024323 -1.67151 
-1.13227 0.0648615 -1.66238 -1.01581 0.0703343 -1.69443 -1.02436 0.179403 -1.64325 
-1.27327 -0.180764 -1.72376 -1.04299 -0.00891421 -1.64181 -0.957861 0.0850598 -1.5901 
-1.24203 0.14395 -1.64253 -1.15946 0.0521943 -1.58649 -1.17842 -0.0334707 -1.55503 
-0.932546 0.0172999 -1.53661 -0.846733 -0.170585 -1.59737 -0.961267 -0.052721 -1.58342 
-1.04263 -0.0288047 -1.50526 -1.07131 -0.0200227 -1.53146 -1.01061 0.0312319 -1.52511 
-0.911098 0.0507405 -1.50642 -1.08139 -0.0307907 -1.49845 -0.844083 -0.0139612 -1.51869 
-1.08722 0.01333 -1.47357 -1.02564 0.0286047 -1.47692 -1.08441 -0.0152823 -1.44442 
-1.35934 0.283724 -1.54438 -1.13691 0.0621687 -1.47354 -1.08173 -0.00681234 -1.41643 
-1.01304 -0.197298 -1.56514 -1.01234 -0.0407536 -1.43582 -1.10239 0.00458917 -1.4393 
-1.11338 0.00902931 -1.49275 -1.05704 -0.0221346 -1.41847 -1.16829 0.255555 -1.43623 
-1.11276 -0.0174279 -1.37533 -1.08033 0.0265767 -1.37765 -1.06996 -0.0497087 -1.36425 
-1.13578 -0.0353817 -1.38119 -1.0491 -0.061281 -1.32412 -1.16487 -0.0278289 -1.40843 
-1.10472 0.182418 -1.3309 -0.904145 -0.0864301 -1.27479 -1.05512 0.139585 -1.31309 
-0.914312 -0.0358974 -1.25742 -1.12687 -0.00547431 -1.29951 -1.2164 -0.134221 -1.35927 
-1.15837 0.0255994 -1.2756 -1.06454 -0.0534303 -1.23061 -1.19539 -0.0596812 -1.32786 
-1.18598 0.0133406 -1.29622 -1.20847 0.100333 -1.27441 -1.10167 0.0688633 -1.17332 
-1.07654 0.135325 -1.20675 -0.988315 -0.0585331 -1.21521 -1.08704 -0.0654429 -1.23923 
-1.14454 -0.0502975 -1.27372 -1.21534 0.0872638 -1.21954 -0.999721 0.112045 -1.19044 
-0.922339 -0.0354127 -1.26756 -1.17791 -0.0979554 -1.17753 -1.10149 -0.0704883 -1.0855 
-1.10672 -0.0694735 -1.0969 -0.859968 -0.134624 -1.13072 -0.968492 -0.0669076 -1.0444 
-1.12307 -0.0114813 -1.03039 -0.960219 0.050049 -1.05353 -0.954143 0.0332181 -1.05413 
-1.14507 -0.146483 -1.10732 -0.966921 -0.0215957 -1.01433 -0.966315 -0.00813597 -1.02342 
-1.11947 -0.0587727 -1.08976 -1.08491 -0.0544035 -1.0844 -1.0474 -0.0533278 -1.05571 
-1.01376 -0.125715 -0.950509 -1.09262 -0.139258 -1.04954 -1.06989 0.015834 -1.01243 
-0.964282 -0.208926 -0.932779 -1.05552 -0.0919895 -0.925519 -1.0399 0.0239732 -1.0029 
-1.09408 0.0509809 -0.887158 -1.10526 0.105764 -0.952937 -0.931525 -0.0507589 -0.84695 
-0.920937 -0.15804 -0.929444 -1.09174 0.107324 -0.886153 -1.185 0.181286 -0.928782 
-1.22956 0.218808 -0.919926 -1.13507 0.175002 -0.924876 -1.12077 0.0409039 -0.870699 
-1.07806 0.0159724 -0.816348 -0.998607 -0.103271 -0.812832 -0.955503 -0.0809711 -0.806902 
-0.957441 0.00412971 -0.825273 -1.05424 0.0128972 -0.852244 -1.11567 0.109859 -0.870908 
-1.02462 0.0728468 -0.728158 -1.11076 0.0227326 -0.810726 -1.0581 -0.260259 -0.817586 
-1.09674 -0.187604 -0.818095 -0.903137 -0.0626823 -0.775654 -0.918825 -0.0745457 -0.787105 
-0.981793 -0.03774 -0.829501 -0.933584 0.0654867 -0.796413 -1.09636 -0.00644754 -0.756524 
-0.917667 -0.0825723 -0.754699 -0.927815 -0.0557572 -0.705654 -1.12261 0.112501 -0.709848 
-1.1057 -0.0822859 -0.772787 -1.13785 -0.0769281 -0.744712 -1.09055 -0.10352 -0.62099 
-1.10061 -0.0949063 -0.720397 -1.20211 0.11334 -0.701644 -0.924852 -0.0109526 -0.577764 
-0.937067 0.00432739 -0.600914 -0.947679 0.0108678 -0.575927 -0.918801 0.0548237 -0.596536 
-0.897172 0.0806651 -0.669408 -0.847372 0.101534 -0.579036 -0.828915 0.0824696 -0.563932 
-0.988453 0.0186019 -0.607108 -1.25622 -0.111964 -0.762594 -1.02912 -0.0472918 -0.556048 
-0.957283 0.00957379 -0.54424 -1.07261 0.105866 -0.61138 -0.96573 -0.0302623 -0.524681 
-0.967448 -0.0122398 -0.548646 -1.16223 0.0218913 -0.611034 -0.970331 0.0386596 -0.606722 
-0.984684 0.0789517 -0.541421 -0.76392 0.0590105 -0.544627 -0.849407 -0.00249987 -0.514114 
-0.861941 -0.00894024 -0.412306 -0.925343 0.0662725 -0.549837 -0.899988 0.0154429 -0.519053 
-0.934312 -0.0774938 -0.466291 -0.921036 0.0858177 -0.498312 -0.87059 -0.102369 -0.718018 
-0.936742 -0.0726122 -0.526231 -1.16857 -0.0487021 -0.582225 -0.976374 0.0596029 -0.528955 
-1.09503 -0.00520879 -0.473177 -0.987018 0.0729146 -0.469437 -1.12071 0.123413 -0.563525 
-0.851652 0.0648844 -0.401202 -0.854114 0.0622507 -0.46085 -1.02909 -0.0378351 -0.405757 
-0.86178 0.0788912 -0.367554 -0.968431 -0.0760671 -0.451683 -1.15438 -0.0265574 -0.379634 
-1.05576 -0.0194084 -0.487557 -1.04782 -0.0808454 -0.460669 -1.11763 -0.074947 -0.498229 
-1.24776 0.196821 -0.578531 -1.02103 -0.00143307 -0.454183 -0.874083 -0.068049 -0.396135 
-1.09744 0.0158349 -0.474846 -0.886748 0.00601558 -0.352349 -0.820848 0.0694865 -0.341573 
-0.803544 0.0434912 -0.314472 -0.99109 0.0570928 -0.414136 -0.95304 0.0493628 -0.398004 
-0.987736 0.0618429 -0.411839 -1.05135 0.010811 -0.427111 -1.1386 -0.0271217 -0.510771 
-1.21787 -0.0518661 -0.557102 -1.10426 -0.0293755 -0.414384 -1.1123 0.0805051 -0.441335 
-1.12462 0.0773026 -0.460244 -1.023 0.0396968 -0.434687 -0.911585 -0.0184405 -0.541218 
-0.963406 0.0143229 -0.366838 -0.897555 -0.0365125 -0.269227 -1.33799 0.0333986 -0.713467 
-0.92088 0.041458 -0.390198 -1.02399 -0.0785054 -0.435766 -0.95721 -0.104531 -0.346171 
-1.08952 -0.233707 -0.500336 -1.14849 -0.0504729 -0.490628 -1.11226 0.0850218 -0.538383 
-1.03381 0.0280121 -0.443342 -1.09242 0.0350237 -0.448943 -1.05807 0.0286666 -0.44813 
-0.91975 0.0407159 -0.389634 -0.9552 -0.00817512 -0.402499 -1.10499 0.107791 -0.481601 
-0.920985 -0.0328734 -0.387222 -1.00717 -0.0338291 -0.424019 -0.947255 0.014079 -0.398365 
-1.01796 -0.0328782 -0.43104 -0.967372 -0.0402589 -0.53468 -0.960646 -0.0220386 -0.407114 
-0.93707 -0.00465946 -0.391013 -0.895066 -0.032145 -0.379376 -1.16663 -0.190395 -0.523619 
-0.780413 -0.0644231 -0.345798 -1.05121 -0.0498044 -0.494412 -1.2063 -0.124952 -0.527048 
-1.13094 -0.0799306 -0.488277 -1.06148 0.122505 -0.380336 -1.2195 -0.242493 -0.563998 
-0.781576 0.102661 -0.33994 -1.00853 -0.0355932 -0.420718 -1.011 -0.00566084 -0.426134 
-0.722187 0.0648492 -0.300267 -0.992447 0.0323124 -0.420346 -0.981666 0.0145442 -0.409921 
-0.808045 0.0476348 -0.345072 -0.972328 0.135187 -0.421242 -1.0323 0.151405 -0.437847 
-0.744488 -0.0576493 -0.311176 -0.972868 0.0144024 -0.406516 -0.972852 0.0227237 -0.400074 
-0.954928 0.0298972 -0.392291 -1.09913 -0.227377 -0.546424 -1.0016 -0.0377534 -0.417137 
-0.795132 -0.0858404 -0.365729 -0.925582 0.039016 -0.388395 -0.854497 0.0753598 -0.366265 
-0.904966 0.0837838 -0.374571 -0.888125 -0.0372657 -0.425244 -1.14349 0.0507461 -0.739193 
-0.994491 -0.0284029 -0.424736 -0.880245 0.0469866 -0.364084 -0.981239 -0.0962961 -0.413289 
-0.939217 0.0133775 -0.381017 -0.934111 0.022264 -0.379408 -0.817861 0.0653877 -0.316247 
-1.16312 0.195824 -0.419468 -0.965585 0.0586276 -0.44776 -0.98949 -0.0507898 -0.40033 
-0.882847 -0.00664469 -0.368803 -0.871688 -0.0284623 -0.307084 -0.862 -0.0130902 -0.357335 
-0.870035 -0.0156453 -0.360668 -0.841093 0.0162198 -0.357465 -0.840558 0.0579235 -0.349247 
-0.992078 -0.00817824 -0.511787 -1.00446 0.0552238 -0.406856 -0.973394 0.0316583 -0.446718 
-1.0275 -0.130804 -0.359873 -0.892627 -0.0423923 -0.325001 -0.724966 0.0946096 -0.308219 
-0.930504 -0.0742468 -0.39712 -0.99892 -0.132295 -0.655772 -1.17184 0.130419 -0.250077 
-1.06343 -0.0802796 -0.528242 -0.936386 0.113542 -0.35406 -1.04313 0.0146493 -0.430848 
-1.07567 0.175023 -0.520805 -0.671212 -0.103637 -0.299764 -0.616956 -0.0280081 -0.262722 
-1.0968 0.0688975 -0.413214 -0.992142 -0.0891341 -0.422922 -1.10144 -0.165972 -0.481897 
-1.2607 -0.094233 -0.551754 -1.04032 0.0687667 -0.431485 -0.77788 -0.106274 -0.312762 
-1.02954 0.009661 -0.393471 -0.967462 0.00964242 -0.367645 -0.652191 0.1219 -0.368936 
-0.900198 -0.0191274 -0.385618 -0.891366 0.0499248 -0.370159 -0.931271 -0.0300529 -0.411804 
-0.88343 -0.0398094 -0.379288 -0.874735 0.0967799 -0.510463 -0.80047 -0.0331124 -0.333653 
-0.854234 0.104906 -0.296443 -0.886314 -0.00511298 -0.367525 -1.24004 0.302219 -0.451226 
-1.01719 -0.0224699 -0.440869 -0.748965 -0.000635974 -0.315386 -1.05265 -0.0402804 -0.423733 
-1.0101 0.0309111 -0.40001 -0.847271 0.0391135 -0.354711 -0.736195 0.137582 -0.356331 
-0.835759 -0.00854705 -0.344926 -0.959036 -0.145037 -0.358574 -0.715254 0.0882707 -0.313148 
-0.914499 -0.0331458 -0.391044 -0.796873 0.251558 -0.323404 -0.760906 -0.0730228 -0.336473 
-0.842947 0.116333 -0.332002 -0.882544 -0.0205512 -0.355219 -0.777826 -0.0683333 -0.326723 
-0.741145 0.00767869 -0.32305 -0.665532 0.0419176 -0.273651 -0.820012 -0.00874738 -0.351393 
-0.767302 0.00268931 -0.458577 -0.825047 0.0582635 -0.335465 -0.712648 0.0504212 -0.289754 
-1.27893 -0.123207 -0.423136 -0.930165 0.113998 -0.426549 -0.839043 0.0201212 -0.342103 
-0.875888 0.0135373 -0.366745 -0.965075 -0.25921 -0.475985 -0.95744 -0.109123 -0.416198 
-0.979511 -0.142436 -0.466056 -0.748067 0.0917745 -0.325696 -0.869391 -0.0635938 -0.362176 
-0.763623 0.00976143 -0.333041 -0.557131 0.0107211 -0.221861 -0.635663 -0.0317716 -0.24728 
-0.617767 -0.385743 -0.516212 -0.508137 -0.100349 -0.219823 -0.408812 -0.0561163 -0.185535 
-0.774458 -0.000136582 -0.331475 -0.653765 -0.0960504 -0.283726 -0.652581 -0.0135707 -0.617726 
-0.376431 -0.148227 -0.165852 -0.642213 -0.297746 -0.661207 -0.798111 -0.0547564 -0.318348 