# vtk DataFile Version 4.0
Generated by LIGGGHTS
ASCII
DATASET POLYDATA
POINTS 835 float
-0.202979 0.0108999 -0.191114 -0.201644 -0.0132058 -0.190299 -0.200918 0.00246512 -0.188973 
-0.46017 0.000826405 -0.399447 -0.453439 0.0204813 -0.398191 -0.481432 -0.00414091 -0.393587 
-0.450036 0.00678949 -0.394513 -0.470637 -0.00444267 -0.390759 -0.494424 0.0447093 -0.390494 
-0.442573 0.00199344 -0.387207 -0.459416 0.00701295 -0.38744 -0.473072 0.0221107 -0.389001 
-0.451959 0.026178 -0.388012 -0.464719 -0.0144563 -0.384177 -0.466447 -0.00709077 -0.384637 
-0.460268 0.0226385 -0.38243 -0.459433 0.010261 -0.378796 -0.446352 0.00746973 -0.376449 
-0.457869 0.0166997 -0.375958 -0.46343 -0.0147609 -0.371741 -0.455144 0.0129703 -0.374298 
-0.455615 0.00767428 -0.367791 -0.454514 0.0174254 -0.369846 -0.46126 -0.0401924 -0.365049 
-0.458949 -0.0185139 -0.366456 -0.447749 -0.00282716 -0.367292 -0.439173 -0.000564856 -0.36662 
-0.459329 0.00277161 -0.364441 -0.447933 0.00346577 -0.364225 -0.443418 0.00823626 -0.364717 
-0.476583 0.0172152 -0.366387 -0.436754 0.00170404 -0.360985 -0.436764 -0.00660107 -0.357325 
-0.4531 0.0175688 -0.358867 -0.455683 -0.0109789 -0.355472 -0.433499 -0.00476098 -0.354137 
-0.483663 0.00725507 -0.353863 -0.427465 -0.0124729 -0.350346 -0.430346 -0.00724562 -0.35132 
-0.445523 0.00255459 -0.350597 -0.425414 0.00865367 -0.352911 -0.435494 0.0320715 -0.351424 
-0.432663 -0.0173197 -0.348736 -0.430352 0.00533421 -0.349373 -0.426527 -0.0142062 -0.342792 
-0.43083 -0.0103353 -0.345629 -0.423899 -0.00780069 -0.342926 -0.436339 -0.00492067 -0.343759 
-0.430206 0.0173524 -0.343912 -0.443214 -0.0255979 -0.340766 -0.440849 -0.0215968 -0.341158 
-0.434285 -0.0209519 -0.339482 -0.428241 0.0049941 -0.342237 -0.4426 0.00913919 -0.339767 
-0.431833 0.0120675 -0.338931 -0.422811 0.00581917 -0.338587 -0.461731 0.0601638 -0.338221 
-0.464824 -0.0432282 -0.334407 -0.436796 -0.00134778 -0.332276 -0.411733 0.00102539 -0.32707 
-0.413662 0.0344331 -0.326627 -0.40816 0.0102781 -0.323955 -0.424116 -0.0102948 -0.320075 
-0.419846 0.0178607 -0.319056 -0.41753 -0.00314645 -0.316409 -0.405014 0.0144026 -0.313455 
-0.417343 -0.0143617 -0.312965 -0.402541 -0.00893468 -0.311241 -0.41358 0.0104975 -0.312641 
-0.413768 -0.0270557 -0.306266 -0.413373 -0.0199419 -0.307274 -0.384895 -0.00832679 -0.299724 
-0.406284 0.00798204 -0.300279 -0.402282 0.0236861 -0.300031 -0.400254 -0.0255082 -0.298495 
-0.399903 0.000348882 -0.297491 -0.381873 0.0087434 -0.298675 -0.395122 -0.00302002 -0.292502 
-0.388686 0.00288547 -0.294207 -0.397093 0.0105895 -0.293353 -0.406921 0.0204764 -0.292444 
-0.398111 -0.0056925 -0.291268 -0.385277 -0.000561886 -0.291239 -0.389677 0.00311868 -0.289313 
-0.385868 0.00495707 -0.288348 -0.386227 -0.0116524 -0.285369 -0.386254 -0.00783544 -0.282191 
-0.389151 -0.00218247 -0.28264 -0.382188 0.0102857 -0.282501 -0.379568 0.020746 -0.282723 
-0.387275 0.0289216 -0.283577 -0.38652 -0.0124127 -0.278013 -0.381719 -0.0122977 -0.278739 
-0.381523 -0.00829594 -0.279921 -0.380706 -0.00448786 -0.278368 -0.365878 0.00166312 -0.279625 
-0.377736 0.00425939 -0.277468 -0.375939 0.0155387 -0.279371 -0.379727 0.0188802 -0.279261 
-0.397874 0.0489678 -0.279382 -0.361823 -0.00068413 -0.275147 -0.372399 0.0147165 -0.274673 
-0.375488 0.0217564 -0.273649 -0.394659 0.0333089 -0.275899 -0.370178 -0.00926364 -0.270436 
-0.37425 -0.00446444 -0.270922 -0.36305 0.00523009 -0.272819 -0.369347 0.00910224 -0.270927 
-0.367252 -0.00957281 -0.26785 -0.367106 -0.00506727 -0.267395 -0.369696 -0.000775875 -0.268878 
-0.368558 0.016569 -0.268594 -0.360662 0.0146255 -0.269019 -0.368991 0.0267352 -0.268115 
-0.368976 -0.0259931 -0.264695 -0.362986 -0.0193097 -0.263647 -0.36062 0.0143047 -0.264447 
-0.360489 0.0173428 -0.262554 -0.364824 0.017082 -0.264935 -0.361457 0.02597 -0.263677 
-0.355182 -0.0181187 -0.259383 -0.359704 -0.0153183 -0.261877 -0.356987 -0.00609269 -0.261576 
-0.353509 0.00270406 -0.261117 -0.351635 0.00282615 -0.258613 -0.356203 0.0083911 -0.261709 
-0.358346 0.0136322 -0.261097 -0.356329 0.0183008 -0.260668 -0.362352 0.0232203 -0.259888 
-0.371882 0.032986 -0.262085 -0.359805 -0.0296957 -0.256391 -0.349563 -0.00160522 -0.257357 
-0.347951 0.0026398 -0.256045 -0.348535 0.00659767 -0.257326 -0.3504 0.00962081 -0.257269 
-0.351756 0.0174389 -0.257128 -0.396415 0.0585291 -0.258187 -0.348122 -0.0207805 -0.253495 
-0.342865 -0.0110414 -0.251557 -0.342791 -0.00662823 -0.252467 -0.344457 0.000118796 -0.251371 
-0.341014 0.0102681 -0.252818 -0.352395 -0.0299684 -0.251299 -0.338955 -0.0104129 -0.249145 
-0.338859 -0.00724089 -0.24885 -0.335976 -0.00802584 -0.247522 -0.3396 -0.00414923 -0.250258 
-0.336753 -0.00351144 -0.247518 -0.343083 0.014155 -0.24999 -0.340612 -0.0290809 -0.244822 
-0.334828 -0.0251285 -0.243768 -0.332381 -0.0217487 -0.24395 -0.337509 -0.0208724 -0.245582 
-0.331977 -0.0169479 -0.24479 -0.331967 -0.0110208 -0.245408 -0.325586 0.000803459 -0.243529 
-0.333735 0.00434025 -0.246399 -0.336461 0.0186225 -0.246961 -0.326207 -0.0155167 -0.242308 
-0.321995 -0.0151792 -0.240679 -0.322033 -0.011282 -0.241209 -0.32528 0.00630409 -0.242953 
-0.327419 0.0273438 -0.240337 -0.320921 -0.0254526 -0.237084 -0.318842 -0.0175447 -0.23896 
-0.319329 -0.0130369 -0.239549 -0.319107 -0.00859 -0.239128 -0.311589 0.00372612 -0.236213 
-0.317779 0.0106912 -0.238381 -0.317712 0.0166615 -0.237487 -0.319853 0.0205177 -0.238728 
-0.325813 0.0299092 -0.238756 -0.327189 -0.0363115 -0.235963 -0.310574 -0.0272516 -0.233293 
-0.307096 -0.0192816 -0.232718 -0.302707 0.00703899 -0.233345 -0.305854 0.0165928 -0.233479 
-0.309559 0.0195626 -0.233517 -0.306355 -0.0289601 -0.231179 -0.301618 -0.0202405 -0.231172 
-0.299839 -0.017722 -0.230948 -0.311439 -0.0153701 -0.231613 -0.296964 -0.0157931 -0.22864 
-0.303988 -0.0119556 -0.232495 -0.292472 -0.00916899 -0.229045 -0.296299 -0.00627294 -0.229772 
-0.294887 -0.0015121 -0.230426 -0.291136 -0.00251129 -0.228792 -0.297221 0.00268629 -0.230222 
-0.292506 0.00431588 -0.229216 -0.292047 0.00742449 -0.228824 -0.298998 0.0163781 -0.22973 
-0.303034 0.0244776 -0.230948 -0.330712 -0.0533625 -0.227614 -0.321594 -0.049555 -0.226794 
-0.2897 -0.0162773 -0.227103 -0.286852 -0.0153258 -0.226012 -0.298426 -0.0110518 -0.227876 
-0.287073 -0.00937317 -0.226531 -0.288571 -0.00692773 -0.227551 -0.288523 -0.00386455 -0.227659 
-0.283764 -0.00456357 -0.225351 -0.287413 -0.000382978 -0.227309 -0.285906 -0.00286744 -0.226587 
-0.283534 -0.00130056 -0.225636 -0.290179 0.000352002 -0.228337 -0.286629 0.00324394 -0.226807 
-0.284023 0.00172575 -0.22578 -0.289929 0.0052939 -0.228032 -0.288803 0.00958549 -0.227315 
-0.294428 0.0129377 -0.228391 -0.290547 0.0120043 -0.227896 -0.287602 0.0135296 -0.22546 
-0.291732 0.0180648 -0.227431 -0.294113 0.0205591 -0.227976 -0.299231 0.022012 -0.227973 
-0.295392 0.0298409 -0.226376 -0.285255 -0.0184879 -0.224832 -0.283259 -0.0160762 -0.22442 
-0.280017 -0.0149084 -0.223185 -0.277625 -0.0128782 -0.222398 -0.312153 -0.00950619 -0.225219 
-0.280212 -0.00952263 -0.22385 -0.280943 -0.00625836 -0.22438 -0.277324 -0.000655884 -0.223041 
-0.280972 0.00157116 -0.222912 -0.27707 0.00276013 -0.222762 -0.286088 0.00732514 -0.225226 
-0.281 0.00675319 -0.224208 -0.27707 0.013401 -0.222143 -0.285675 0.0170132 -0.225165 
-0.282961 0.0163563 -0.224049 -0.298402 0.0392975 -0.224454 -0.288899 -0.0345148 -0.221077 
-0.274147 -0.0167509 -0.220511 -0.268368 -0.0108892 -0.218754 -0.26682 -0.00539846 -0.218445 
-0.27205 0.00202561 -0.219816 -0.270426 0.00711077 -0.219792 -0.275814 0.0197202 -0.220512 
-0.283858 0.0300363 -0.220452 -0.278869 0.028765 -0.218741 -0.277639 0.0329195 -0.218098 
-0.302548 0.0489777 -0.220229 -0.298719 -0.0498927 -0.219276 -0.292765 -0.0482652 -0.216784 
-0.271 -0.0262773 -0.216286 -0.266688 -0.0220725 -0.216411 -0.265385 -0.0117608 -0.216264 
-0.268613 -0.00806227 -0.217464 -0.259081 -0.00729926 -0.215099 -0.260262 -0.00238191 -0.21576 
-0.267518 0.00306682 -0.21768 -0.263385 0.000305444 -0.216072 -0.263798 0.00525223 -0.217099 
-0.260349 0.00401117 -0.215692 -0.258341 0.00610438 -0.214743 -0.266068 0.00741257 -0.217942 
-0.26754 0.0153946 -0.216704 -0.260581 0.015858 -0.214804 -0.266328 0.0224777 -0.215075 
-0.271933 0.0253264 -0.217942 -0.274715 0.0308795 -0.215703 -0.267211 0.0283591 -0.215153 
-0.267521 -0.0286276 -0.212303 -0.263569 -0.0301533 -0.213224 -0.252513 -0.00682525 -0.211266 
-0.272908 -0.00129675 -0.2148 -0.254319 -0.00217574 -0.213312 -0.252687 0.00200079 -0.211459 
-0.25319 0.00781832 -0.211831 -0.258684 0.0128381 -0.214467 -0.25456 0.0106414 -0.21296 
-0.254797 0.0145779 -0.211288 -0.253324 0.0185068 -0.211346 -0.263479 0.0261113 -0.213117 
-0.254636 -0.0261684 -0.210439 -0.249421 -0.0231389 -0.208956 -0.260315 -0.00922557 -0.211395 
-0.247157 -0.00357543 -0.210241 -0.247198 -0.000537679 -0.210311 -0.244449 -0.00123024 -0.209176 
-0.243616 0.00308675 -0.208665 -0.244122 0.00621538 -0.208758 -0.252142 0.0218673 -0.209265 
-0.264224 0.0380492 -0.211131 -0.241536 -0.0158959 -0.206826 -0.239469 -0.0124398 -0.206194 
-0.240389 -0.00852079 -0.205991 -0.234084 -0.00861857 -0.204194 -0.252318 0.0117398 -0.207597 
-0.262161 0.0173816 -0.208317 -0.243105 0.0242698 -0.206238 -0.238072 0.0217174 -0.204532 
-0.238868 0.0254591 -0.204155 -0.245389 0.03548 -0.204271 -0.23182 -0.0235587 -0.201457 
-0.236664 -0.0203979 -0.204108 -0.238069 -0.0166849 -0.203616 -0.227269 -0.00917506 -0.201456 
-0.231665 0.00181562 -0.203662 -0.228173 0.00497769 -0.202088 -0.231148 0.00778409 -0.202182 
-0.232045 0.0213505 -0.200976 -0.252891 0.0426024 -0.203586 -0.224997 -0.0246488 -0.198428 
-0.228032 -0.0243518 -0.199746 -0.22343 -0.013588 -0.199423 -0.224557 -0.0097697 -0.199829 
-0.216377 -0.00955383 -0.196845 -0.219011 -0.00419469 -0.198393 -0.227069 0.00270517 -0.200192 
-0.219839 0.00742813 -0.197457 -0.217108 0.0108558 -0.197118 -0.223782 0.0154274 -0.199408 
-0.227339 -0.0386625 -0.195779 -0.224321 -0.0279884 -0.19631 -0.215046 -0.012747 -0.194863 
[...]
POINT_DATA 835
FIELD FieldData 7
id 1 835 int
668 739 651 173 392 398 438 328 439 
402 441 296 362 456 335 367 326 395 
419 371 298 468 369 535 386 377 248 
414 481 429 496 393 426 407 360 388 
584 349 273 421 424 448 358 374 409 
432 415 477 423 523 452 437 394 446 
410 447 510 618 400 499 490 382 443 
399 442 276 470 385 475 195 449 462 
461 540 467 387 427 343 428 483 561 
464 465 513 458 430 478 469 471 473 
494 460 484 472 434 353 480 502 459 
436 611 357 431 526 351 408 550 440 
476 422 433 453 390 397 568 418 416 
417 533 525 363 479 435 451 375 466 
368 509 537 573 501 500 599 340 450 
615 596 412 455 554 558 364 630 582 
492 645 505 482 583 560 508 543 522 
564 603 366 507 541 619 361 498 530 
578 420 515 493 497 445 574 572 566 
719 520 518 546 538 656 534 581 489 
553 662 511 559 514 495 531 454 444 
556 529 548 516 676 677 487 527 571 
576 545 503 542 551 589 506 524 488 
491 528 591 549 588 521 474 635 809 
683 565 519 602 604 512 563 594 486 
485 698 562 532 557 517 609 620 702 
608 614 661 577 606 655 624 742 590 
586 648 675 547 627 650 555 595 711 
610 587 552 580 674 658 598 633 575 
629 734 685 647 775 613 715 621 585 
570 654 680 625 681 600 628 699 726 
707 632 607 631 671 536 692 682 694 
612 736 716 652 644 673 641 725 592 
263 637 666 617 634 640 597 690 735 
712 567 669 616 643 812 636 544 601 
622 639 638 657 649 721 700 691 539 
688 653 697 623 727 665 642 626 569 
704 774 710 703 686 646 667 593 948 
605 1004 744 713 660 670 678 760 663 
906 784 701 684 720 755 717 679 724 
800 664 754 730 776 827 718 794 741 
757 747 782 672 579 822 714 729 706 
740 709 696 777 769 810 753 732 695 
823 756 788 816 750 826 708 790 748 
738 867 928 789 792 780 722 733 737 
752 839 838 805 758 723 765 705 693 
801 764 766 820 814 866 803 728 771 
846 833 828 845 781 875 808 898 837 
687 785 853 856 762 903 743 773 819 
783 849 751 795 797 798 840 746 689 
778 759 768 843 900 731 836 848 772 
787 874 829 942 888 813 763 832 854 
817 862 767 889 796 958 908 852 791 
871 891 841 872 811 882 830 799 806 
858 818 892 761 909 807 956 815 868 
897 883 786 863 804 873 922 851 824 
899 870 859 911 831 931 902 847 793 
904 884 821 857 855 878 913 940 844 
659 957 918 749 907 919 881 869 880 
887 941 864 879 896 935 916 890 876 
894 770 779 835 842 861 865 912 860 
954 925 924 943 825 885 923 920 893 
834 921 933 964 959 910 946 936 938 
949 971 895 850 915 901 1006 945 877 
930 905 991 981 979 953 976 986 1003 
944 972 1191 983 886 1200 1201 1195 951 
937 914 926 1011 1009 950 1036 967 977 
965 939 997 1014 989 962 969 961 929 
1017 1032 1037 1019 988 1022 1042 947 985 
1023 955 975 994 966 1026 980 1025 1028 
1030 1034 1020 1027 952 992 927 1018 1012 
1029 968 932 978 1016 984 970 1031 960 
987 1052 1046 1035 1021 1015 1010 1049 999 
1005 982 1040 934 1038 973 1048 974 1041 
1007 996 1039 1000 1001 1008 1002 1053 1043 
1013 917 1044 995 1024 990 1045 1059 1047 
1054 963 1033 998 993 1057 1056 1051 1050 
1058 1055 1061 1065 1066 1062 1070 1069 1072 
1068 1060 1071 1064 802 745 1063 1067 1075 
1078 1076 1073 1077 1085 1074 1082 1081 1084 
1083 1080 1079 1092 1094 1096 1091 1087 1088 
1089 1090 1098 1095 1093 1086 1097 1105 1108 
1110 1103 1099 1109 1107 1101 1104 1102 1111 
1117 1106 1100 1123 1122 1119 1116 1114 1118 
1120 1124 1121 1131 1112 1113 1115 1137 1135 
1127 1126 1128 1130 1129 1125 1133 1132 1136 
1144 1134 1149 1145 1141 1147 1142 1140 1143 
1148 1138 1150 1146 1139 1163 1157 1156 1154 
1160 1161 1152 1151 1155 1158 1153 1162 1159 
1170 1169 1168 1173 1167 1174 1165 1164 1166 
1171 1172 1175 1179 1185 1184 1187 1176 1186 
1183 1182 1181 1188 1180 1177 1198 1194 1178 
1199 1193 1189 1192 1197 1196 1190 
type 1 835 int
1 1 1 1 1 1 1 1 1 
1 1 1 1 1 1 1 1 1 
1 1 1 1 1 1 1 1 1 
1 1 1 1 1 1 1 1 1 
1 1 1 1 1 1 1 1 1 
1 1 1 1 1 1 1 1 1 
1 1 1 1 1 1 1 1 1 
1 1 1 1 1 1 1 1 1 
1 1 1 1 1 1 1 1 1 
1 1 1 1 1 1 1 1 1 
1 1 1 1 1 1 1 1 1 
1 1 1 1 1 1 1 1 1 
1 1 1 1 1 1 1 1 1 
1 1 1 1 1 1 1 1 1 
1 1 1 1 1 1 1 1 1 
1 1 1 1 1 1 1 1 1 
1 1 1 1 1 1 1 1 1 
1 1 1 1 1 1 1 1 1 
1 1 1 1 1 1 1 1 1 
1 1 1 1 1 1 1 1 1 
1 1 1 1 1 1 1 1 1 
1 1 1 1 1 1 1 1 1 
1 1 1 1 1 1 1 1 1 
1 1 1 1 1 1 1 1 1 
1 1 1 1 1 1 1 1 1 
1 1 1 1 1 1 1 1 1 
1 1 1 1 1 1 1 1 1 
1 1 1 1 1 1 1 1 1 
1 1 1 1 1 1 1 1 1 
1 1 1 1 1 1 1 1 1 
1 1 1 1 1 1 1 1 1 
1 1 1 1 1 1 1 1 1 
1 1 1 1 1 1 1 1 1 
1 1 1 1 1 1 1 1 1 
1 1 1 1 1 1 1 1 1 
1 1 1 1 1 1 1 1 1 
1 1 1 1 1 1 1 1 1 
1 1 1 1 1 1 1 1 1 
1 1 1 1 1 1 1 1 1 
1 1 1 1 1 1 1 1 1 
1 1 1 1 1 1 1 1 1 
1 1 1 1 1 1 1 1 1 
1 1 1 1 1 1 1 1 1 
1 1 1 1 1 1 1 1 1 
1 1 1 1 1 1 1 1 1 
1 1 1 1 1 1 1 1 1 
1 1 1 1 1 1 1 1 1 
1 1 1 1 1 1 1 1 1 
1 1 1 1 1 1 1 1 1 
1 1 1 1 1 1 1 1 1 
1 1 1 1 1 1 1 1 1 
1 1 1 1 1 1 1 1 1 
1 1 1 1 1 1 1 1 1 
1 1 1 1 1 1 1 1 1 
1 1 1 1 1 1 1 1 1 
1 1 1 1 1 1 1 1 1 
1 1 1 1 1 1 1 1 1 
1 1 1 1 1 1 1 1 1 
1 1 1 1 1 1 1 1 1 
1 1 1 1 1 1 1 1 1 
1 1 1 1 1 1 1 1 1 
1 1 1 1 1 1 1 1 1 
1 1 1 1 1 1 1 1 1 
1 1 1 1 1 1 1 1 1 
1 1 1 1 1 1 1 1 1 
1 1 1 1 1 1 1 1 1 
1 1 1 1 1 1 1 1 1 
1 1 1 1 1 1 1 1 1 
1 1 1 1 1 1 1 1 1 
1 1 1 1 1 1 1 1 1 
1 1 1 1 1 1 1 1 1 
1 1 1 1 1 1 1 1 1 
1 1 1 1 1 1 1 1 1 
1 1 1 1 1 1 1 1 1 
1 1 1 1 1 1 1 1 1 
1 1 1 1 1 1 1 1 1 
1 1 1 1 1 1 1 1 1 
1 1 1 1 1 1 1 1 1 
1 1 1 1 1 1 1 1 1 
1 1 1 1 1 1 1 1 1 
1 1 1 1 1 1 1 1 1 
1 1 1 1 1 1 1 1 1 
1 1 1 1 1 1 1 1 1 
1 1 1 1 1 1 1 1 1 
1 1 1 1 1 1 1 1 1 
1 1 1 1 1 1 1 1 1 
1 1 1 1 1 1 1 1 1 
1 1 1 1 1 1 1 1 1 
1 1 1 1 1 1 1 1 1 
1 1 1 1 1 1 1 1 1 
1 1 1 1 1 1 1 1 1 
1 1 1 1 1 1 1 1 1 
1 1 1 1 1 1 1 
i 3 835 int
0 0 0 0 0 0 0 0 0 
0 0 0 0 0 0 0 0 0 
0 0 0 0 0 0 0 0 0 
0 0 0 0 0 0 0 0 0 
0 0 0 0 0 0 0 0 0 
0 0 0 0 0 0 0 0 0 
0 0 0 0 0 0 0 0 0 
0 0 0 0 0 0 0 0 0 
0 0 0 0 0 0 0 0 0 
0 0 0 0 0 0 0 0 0 
0 0 0 0 0 0 0 0 0 
0 0 0 0 0 0 0 0 0 
0 0 0 0 0 0 0 0 0 
0 0 0 0 0 0 0 0 0 
0 0 0 0 0 0 0 0 0 
0 0 0 0 0 0 0 0 0 
0 0 0 0 0 0 0 0 0 
0 0 0 0 0 0 0 0 0 
0 0 0 0 0 0 0 0 0 
0 0 0 0 0 0 0 0 0 
0 0 0 0 0 0 0 0 0 
0 0 0 0 0 0 0 0 0 
0 0 0 0 0 0 0 0 0 
0 0 0 0 0 0 0 0 0 
0 0 0 0 0 0 0 0 0 
0 0 0 0 0 0 0 0 0 
0 0 0 0 0 0 0 0 0 
0 0 0 0 0 0 0 0 0 
0 0 0 0 0 0 0 0 0 
0 0 0 0 0 0 0 0 0 
0 0 0 0 0 0 0 0 0 
0 0 0 0 0 0 0 0 0 
0 0 0 0 0 0 0 0 0 
0 0 0 0 0 0 0 0 0 
0 0 0 0 0 0 0 0 0 
0 0 0 0 0 0 0 0 0 
0 0 0 0 0 0 0 0 0 
0 0 0 0 0 0 0 0 0 
0 0 0 0 0 0 0 0 0 
0 0 0 0 0 0 0 0 0 
0 0 0 0 0 0 0 0 0 
0 0 0 0 0 0 0 0 0 
0 0 0 0 0 0 0 0 0 
0 0 0 0 0 0 0 0 0 
0 0 0 0 0 0 0 0 0 
0 0 0 0 0 0 0 0 0 
0 0 0 0 0 0 0 0 0 
0 0 0 0 0 0 0 0 0 
0 0 0 0 0 0 0 0 0 
0 0 0 0 0 0 0 0 0 
0 0 0 0 0 0 0 0 0 
0 0 0 0 0 0 0 0 0 
0 0 0 0 0 0 0 0 0 
0 0 0 0 0 0 0 0 0 
0 0 0 0 0 0 0 0 0 
0 0 0 0 0 0 0 0 0 
0 0 0 0 0 0 0 0 0 
0 0 0 0 0 0 0 0 0 
0 0 0 0 0 0 0 0 0 
0 0 0 0 0 0 0 0 0 
0 0 0 0 0 0 0 0 0 
0 0 0 0 0 0 0 0 0 
0 0 0 0 0 0 0 0 0 
0 0 0 0 0 0 0 0 0 
0 0 0 0 0 0 0 0 0 
0 0 0 0 0 0 0 0 0 
0 0 0 0 0 0 0 0 0 
0 0 0 0 0 0 0 0 0 
0 0 0 0 0 0 0 0 0 
0 0 0 0 0 0 0 0 0 
0 0 0 0 0 0 0 0 0 
0 0 0 0 0 0 0 0 0 
0 0 0 0 0 0 0 0 0 
0 0 0 0 0 0 0 0 0 
0 0 0 0 0 0 0 0 0 
0 0 0 0 0 0 0 0 0 
0 0 0 0 0 0 0 0 0 
0 0 0 0 0 0 0 0 0 
0 0 0 0 0 0 0 0 0 
0 0 0 0 0 0 0 0 0 
0 0 0 0 0 0 0 0 0 
0 0 0 0 0 0 0 0 0 
0 0 0 0 0 0 0 0 0 
0 0 0 0 0 0 0 0 0 
0 0 0 0 0 0 0 0 0 
0 0 0 0 0 0 0 0 0 
0 0 0 0 0 0 0 0 0 
0 0 0 0 0 0 0 0 0 
0 0 0 0 0 0 0 0 0 
0 0 0 0 0 0 0 0 0 
0 0 0 0 0 0 0 0 0 
0 0 0 0 0 0 0 0 0 
0 0 0 0 0 0 0 0 0 
0 0 0 0 0 0 0 0 0 
0 0 0 0 0 0 0 0 0 
0 0 0 0 0 0 0 0 0 
0 0 0 0 0 0 0 0 0 
0 0 0 0 0 0 0 0 0 
0 0 0 0 0 0 0 0 0 
0 0 0 0 0 0 0 0 0 
0 0 0 0 0 0 0 0 0 
0 0 0 0 0 0 0 0 0 
0 0 0 0 0 0 0 0 0 
0 0 0 0 0 0 0 0 0 
0 0 0 0 0 0 0 0 0 
0 0 0 0 0 0 0 0 0 
0 0 0 0 0 0 0 0 0 
0 0 0 0 0 0 0 0 0 
0 0 0 0 0 0 0 0 0 
0 0 0 0 0 0 0 0 0 
0 0 0 0 0 0 0 0 0 
0 0 0 0 0 0 0 0 0 
0 0 0 0 0 0 0 0 0 
0 0 0 0 0 0 0 0 0 
0 0 0 0 0 0 0 0 0 
0 0 0 0 0 0 0 0 0 
0 0 0 0 0 0 0 0 0 
0 0 0 0 0 0 0 0 0 
0 0 0 0 0 0 0 0 0 
0 0 0 0 0 0 0 0 0 
0 0 0 0 0 0 0 0 0 
0 0 0 0 0 0 0 0 0 
0 0 0 0 0 0 0 0 0 
0 0 0 0 0 0 0 0 0 
0 0 0 0 0 0 0 0 0 
0 0 0 0 0 0 0 0 0 
0 0 0 0 0 0 0 0 0 
0 0 0 0 0 0 0 0 0 
0 0 0 0 0 0 0 0 0 
0 0 0 0 0 0 0 0 0 
0 0 0 0 0 0 0 0 0 
0 0 0 0 0 0 0 0 0 
0 0 0 0 0 0 0 0 0 
0 0 0 0 0 0 0 0 0 
0 0 0 0 0 0 0 0 0 
0 0 0 0 0 0 0 0 0 
0 0 0 0 0 0 0 0 0 
0 0 0 0 0 0 0 0 0 
0 0 0 0 0 0 0 0 0 
0 0 0 0 0 0 0 0 0 
0 0 0 0 0 0 0 0 0 
0 0 0 0 0 0 0 0 0 
0 0 0 0 0 0 0 0 0 
0 0 0 0 0 0 0 0 0 
0 0 0 0 0 0 0 0 0 
0 0 0 0 0 0 0 0 0 
0 0 0 0 0 0 0 0 0 
0 0 0 0 0 0 0 0 0 
0 0 0 0 0 0 0 0 0 
0 0 0 0 0 0 0 0 0 
0 0 0 0 0 0 0 0 0 
0 0 0 0 0 0 0 0 0 
0 0 0 0 0 0 0 0 0 
0 0 0 0 0 0 0 0 0 
0 0 0 0 0 0 0 0 0 
0 0 0 0 0 0 0 0 0 
0 0 0 0 0 0 0 0 0 
0 0 0 0 0 0 0 0 0 
0 0 0 0 0 0 0 0 0 
0 0 0 0 0 0 0 0 0 
0 0 0 0 0 0 0 0 0 
0 0 0 0 0 0 0 0 0 
0 0 0 0 0 0 0 0 0 
0 0 0 0 0 0 0 0 0 
0 0 0 0 0 0 0 0 0 
0 0 0 0 0 0 0 0 0 
0 0 0 0 0 0 0 0 0 
0 0 0 0 0 0 0 0 0 
0 0 0 0 0 0 0 0 0 
0 0 0 0 0 0 0 0 0 
0 0 0 0 0 0 0 0 0 
0 0 0 0 0 0 0 0 0 
0 0 0 0 0 0 0 0 0 
0 0 0 0 0 0 0 0 0 
0 0 0 0 0 0 0 0 0 
0 0 0 0 0 0 0 0 0 
0 0 0 0 0 0 0 0 0 
0 0 0 0 0 0 0 0 0 
0 0 0 0 0 0 0 0 0 
0 0 0 0 0 0 0 0 0 
0 0 0 0 0 0 0 0 0 
0 0 0 0 0 0 0 0 0 
0 0 0 0 0 0 0 0 0 
0 0 0 0 0 0 0 0 0 
0 0 0 0 0 0 0 0 0 
0 0 0 0 0 0 0 0 0 
0 0 0 0 0 0 0 0 0 
0 0 0 0 0 0 0 0 0 
0 0 0 0 0 0 0 0 0 
0 0 0 0 0 0 0 0 0 
0 0 0 0 0 0 0 0 0 
0 0 0 0 0 0 0 0 0 
0 0 0 0 0 0 0 0 0 
0 0 0 0 0 0 0 0 0 
0 0 0 0 0 0 0 0 0 
0 0 0 0 0 0 0 0 0 
0 0 0 0 0 0 0 0 0 
0 0 0 0 0 0 0 0 0 
0 0 0 0 0 0 0 0 0 
0 0 0 0 0 0 0 0 0 
0 0 0 0 0 0 0 0 0 
0 0 0 0 0 0 0 0 0 
0 0 0 0 0 0 0 0 0 
0 0 0 0 0 0 0 0 0 
0 0 0 0 0 0 0 0 0 
0 0 0 0 0 0 0 0 0 
0 0 0 0 0 0 0 0 0 
0 0 0 0 0 0 0 0 0 
0 0 0 0 0 0 0 0 0 
0 0 0 0 0 0 0 0 0 
0 0 0 0 0 0 0 0 0 
0 0 0 0 0 0 0 0 0 
0 0 0 0 0 0 0 0 0 
0 0 0 0 0 0 0 0 0 
0 0 0 0 0 0 0 0 0 
0 0 0 0 0 0 0 0 0 
0 0 0 0 0 0 0 0 0 
0 0 0 0 0 0 0 0 0 
0 0 0 0 0 0 0 0 0 
0 0 0 0 0 0 0 0 0 
0 0 0 0 0 0 0 0 0 
0 0 0 0 0 0 0 0 0 
0 0 0 0 0 0 0 0 0 
0 0 0 0 0 0 0 0 0 
0 0 0 0 0 0 0 0 0 
0 0 0 0 0 0 0 0 0 
0 0 0 0 0 0 0 0 0 
0 0 0 0 0 0 0 0 0 
0 0 0 0 0 0 0 0 0 
0 0 0 0 0 0 0 0 0 
0 0 0 0 0 0 0 0 0 
0 0 0 0 0 0 0 0 0 
0 0 0 0 0 0 0 0 0 
0 0 0 0 0 0 0 0 0 
0 0 0 0 0 0 0 0 0 
0 0 0 0 0 0 0 0 0 
0 0 0 0 0 0 0 0 0 
0 0 0 0 0 0 0 0 0 
0 0 0 0 0 0 0 0 0 
0 0 0 0 0 0 0 0 0 
0 0 0 0 0 0 0 0 0 
0 0 0 0 0 0 0 0 0 
0 0 0 0 0 0 0 0 0 
0 0 0 0 0 0 0 0 0 
0 0 0 0 0 0 0 0 0 
0 0 0 0 0 0 0 0 0 
0 0 0 0 0 0 0 0 0 
0 0 0 0 0 0 0 0 0 
0 0 0 0 0 0 0 0 0 
0 0 0 0 0 0 0 0 0 
0 0 0 0 0 0 0 0 0 
0 0 0 0 0 0 0 0 0 
0 0 0 0 0 0 0 0 0 
0 0 0 0 0 0 0 0 0 
0 0 0 0 0 0 0 0 0 
0 0 0 0 0 0 0 0 0 
0 0 0 0 0 0 0 0 0 
0 0 0 0 0 0 0 0 0 
0 0 0 0 0 0 0 0 0 
0 0 0 0 0 0 0 0 0 
0 0 0 0 0 0 0 0 0 
0 0 0 0 0 0 0 0 0 
0 0 0 0 0 0 0 0 0 
0 0 0 0 0 0 0 0 0 
0 0 0 0 0 0 0 0 0 
0 0 0 0 0 0 0 0 0 
0 0 0 0 0 0 0 0 0 
0 0 0 0 0 0 0 0 0 
0 0 0 0 0 0 0 0 0 
0 0 0 0 0 0 0 0 0 
0 0 0 0 0 0 0 0 0 
0 0 0 0 0 0 0 0 0 
0 0 0 0 0 0 0 0 0 
0 0 0 0 0 0 0 0 0 
0 0 0 0 0 0 0 0 0 
0 0 0 0 0 0 0 0 0 
0 0 0 0 0 0 0 0 0 
0 0 0 0 0 0 0 0 0 
0 0 0 
v 3 835 double
-0.777911 -0.00251412 -0.331987 -0.847432 0.029557 -0.353743 -0.81182 0.0263228 -0.289607 
-0.970163 -0.0787416 -1.81 -0.99094 -0.0206051 -1.90727 -1.17388 0.319776 -1.87266 
-0.927618 -0.0602206 -1.79303 -1.09945 0.0804293 -1.77357 -1.26359 0.0641379 -1.80776 
-0.932349 -0.0459313 -1.78245 -1.07604 0.0646384 -1.77298 -1.15066 0.15227 -1.76527 
-1.00281 0.0437341 -1.75449 -1.04671 0.136552 -1.76236 -1.09474 0.0645417 -1.73899 
-1.04894 0.0807352 -1.72651 -1.07773 -0.0167849 -1.70501 -0.978574 0.0524771 -1.70336 
-1.07203 -0.0363971 -1.70742 -1.13767 0.00659103 -1.66481 -1.05677 -0.0150435 -1.67813 
-1.10363 -0.0237847 -1.64682 -1.08304 -0.0300217 -1.67564 -1.13144 -0.031255 -1.67077 
-1.12546 0.0102713 -1.63777 -1.03708 -0.0783032 -1.6322 -0.931863 0.0771087 -1.61361 
-1.10963 -0.0591407 -1.59135 -1.08936 -0.0532732 -1.64048 -1.05888 -0.0450864 -1.64219 
-1.28902 -0.0814642 -1.66305 -0.896679 0.0432258 -1.55644 -0.984536 -0.106928 -1.56501 
-1.10887 -0.0363477 -1.59933 -1.1835 0.199189 -1.61128 -0.976038 -0.00339729 -1.55151 
-1.31063 -0.0663258 -1.61237 -1.007 -0.035907 -1.56545 -0.968014 -0.0189975 -1.53548 
-1.10426 -0.102396 -1.54125 -0.917413 0.00930895 -1.56694 -0.938959 0.00363326 -1.54256 
-0.973977 -0.0620074 -1.50311 -0.964239 0.0279976 -1.50864 -1.02291 -0.0295014 -1.50867 
-0.989407 -0.0182311 -1.49842 -0.924748 -0.032325 -1.46318 -1.31519 -0.353185 -1.69715 
-0.98199 -0.0516308 -1.49133 -1.2349 0.085979 -1.56616 -1.02159 0.122106 -1.48363 
-1.03729 0.0749268 -1.47289 -0.970471 0.0035446 -1.4612 -1.20047 -0.123022 -1.50238 
-1.06749 -0.0186179 -1.45743 -0.956478 0.00383404 -1.43739 -1.06557 0.132866 -1.46205 
-1.3896 0.106067 -1.56716 -1.08427 0.0145501 -1.36052 -1.07238 0.686387 -1.64453 
-0.848479 -0.00715717 -1.37403 -0.858799 -0.0328401 -1.32471 -1.04286 0.0226398 -1.29738 
-1.10236 -0.0375367 -1.33171 -1.02826 -0.149685 -1.25275 -0.949705 0.0649625 -1.25346 
-1.16521 -0.0614088 -1.31116 -1.09996 0.0665071 -1.32039 -1.11331 -0.0954678 -1.28594 
-1.13792 -0.0900836 -1.21987 -1.14296 -0.362958 -1.12344 -0.962506 0.0404147 -1.22794 
-1.2027 -0.255341 -1.224 -1.05961 0.0125691 -1.17455 -0.997688 0.0583755 -1.16651 
-1.11199 0.086525 -1.14199 -0.936981 0.122637 -1.20861 -1.13712 0.0324697 -1.14587 
-0.949585 0.0400099 -1.08906 -1.11591 -0.183349 -1.15172 -1.33894 0.156295 -1.29297 
-1.07204 0.128448 -1.06183 -0.925117 -0.0359711 -1.08505 -1.07563 -0.0113252 -1.0509 
-1.04158 -0.0208647 -1.08196 -1.13651 -0.00933753 -1.09905 -1.10737 -0.0998359 -0.976566 
-1.09179 -0.013483 -0.970068 -1.01886 -0.0585147 -1.01173 -0.916449 0.0788902 -0.979484 
-0.984412 -0.108053 -1.08845 -1.11765 0.0252541 -0.951011 -1.06024 0.0977292 -0.976434 
-1.01063 -0.0207227 -0.943929 -1.08716 0.0379373 -0.958765 -0.881636 0.0808546 -1.03215 
-1.11089 -0.130922 -0.968294 -0.929603 -0.0440289 -0.961515 -0.956295 -0.0831273 -0.966871 
-1.07126 0.0467332 -1.03613 -1.07617 0.0584844 -1.2019 -0.924102 -0.0507259 -0.919294 
-1.01457 -0.0107964 -0.93136 -1.23432 -0.0694596 -0.930387 -1.06704 0.0631375 -0.869949 
-1.09844 0.0183118 -0.868425 -0.976943 0.290424 -0.977696 -1.00808 0.0148176 -0.877484 
-1.06628 0.0719716 -0.837683 -1.05797 0.0625611 -0.839023 -1.11162 0.0444094 -0.864234 
-1.09406 0.0147668 -0.868439 -0.934027 -0.0827047 -0.930691 -0.973923 -0.000797317 -0.854969 
-1.09174 0.0550328 -0.836748 -1.02869 0.0729429 -0.805963 -1.00893 -0.0112386 -0.802818 
-1.00334 -0.00373898 -0.774775 -1.02893 -0.125442 -0.846004 -0.900658 0.0044599 -0.786994 
-0.981977 -0.0137255 -0.7344 -1.06084 -0.0141527 -0.768862 -1.00642 0.0552764 -0.750424 
-0.921749 0.0429546 -0.759782 -0.967696 -0.0253258 -0.675047 -0.985938 0.00581331 -0.755559 
-1.02747 0.0269307 -0.766504 -0.976188 0.0188753 -0.78779 -1.06831 -0.0185623 -0.780748 
-1.15883 0.10086 -0.812738 -1.16128 0.128801 -0.788674 -0.925244 -0.0175386 -0.666626 
-0.986659 0.0320406 -0.736964 -0.957507 0.0581484 -0.72792 -0.992516 -0.0335261 -0.700199 
-1.29494 -0.0705968 -0.872607 -1.24324 -0.0486225 -0.942217 -0.954358 -0.138168 -0.615258 
-0.97408 -0.00866052 -0.660273 -0.90534 0.0417808 -0.592675 -1.04384 -0.0894427 -0.580401 
-0.969808 -0.0651305 -0.703575 -1.23744 0.213828 -0.765683 -1.1338 0.03682 -0.603871 
-1.05416 0.00860037 -0.608715 -1.03319 0.0112241 -0.470889 -0.947695 0.0297526 -0.67018 
-1.03445 0.021185 -0.530657 -1.12209 -0.00457418 -0.569819 -1.00993 0.0911743 -0.57653 
-1.00366 0.0399991 -0.552572 -1.03136 0.0523968 -0.510358 -1.04587 0.0279668 -0.556193 
-1.08179 0.0011668 -0.529557 -1.17757 0.131724 -0.544245 -0.675404 0.0146539 -0.3376 
-0.978839 0.0393741 -0.634787 -0.990588 -0.208452 -0.589129 -1.11169 -0.00999213 -0.469477 
-0.982789 0.135217 -0.415551 -1.11231 0.0636242 -0.439853 -1.04363 -0.0841873 -0.476486 
-1.13331 -0.0623463 -0.51578 -0.998817 0.0400116 -0.433317 -0.904764 0.154218 -0.392016 
-0.950107 0.144321 -0.453751 -1.12005 0.116553 -0.457196 -0.93183 -0.0518534 -0.395384 
-1.09881 -0.0871056 -0.46796 -1.02758 -0.0571278 -0.440907 -1.0099 -0.010392 -0.424427 
-1.32829 -0.0581419 -0.574164 -1.11665 -0.00812778 -0.446841 -0.855232 0.103733 -0.361601 
-0.825897 0.190097 -0.392691 -0.891793 0.000299698 -0.376382 -0.840322 0.0621512 -0.341493 
-1.18542 -0.0237565 -0.499294 -0.927298 0.0317934 -0.373047 -0.920623 0.0263135 -0.383816 
-0.972513 0.107346 -0.401136 -1.30762 -0.100605 -0.942271 -0.950925 0.0846336 -0.303732 
-1.07385 0.0311017 -0.455093 -0.770964 -0.000727137 -0.324278 -0.853463 -0.00353622 -0.362298 
-0.848211 -0.0679301 -0.355915 -0.845625 0.0269703 -0.360816 -0.862631 -0.0165536 -0.364611 
-0.844876 -0.0107505 -0.35458 -0.826712 -0.0121622 -0.34992 -0.881058 0.0349085 -0.360433 
-0.975961 0.0525946 -0.348505 -1.27205 0.0973979 -0.502589 -1.14581 0.0784046 -0.477917 
-1.01833 0.0780227 -0.439886 -0.980855 0.0200494 -0.414339 -1.0515 -0.0814686 -0.502049 
-0.893955 -0.0576857 -0.303192 -0.8552 -0.0270536 -0.356722 -0.846225 0.00333126 -0.355431 
-0.857279 -0.0445254 -0.346357 -0.786778 0.00467504 -0.327602 -0.835431 -0.0392255 -0.347149 
-0.836175 -0.018396 -0.376236 -0.819246 0.0347009 -0.307022 -0.888238 0.0157049 -0.370175 
-0.873267 -0.0331334 -0.386868 -0.822539 -0.00567905 -0.400796 -0.753135 0.0533092 -0.314555 
-0.848856 -0.0254535 -0.360124 -0.839743 -0.0395834 -0.357352 -0.850535 0.0673608 -0.345235 
-0.886757 0.143696 -0.333186 -1.13238 -0.108068 -0.488918 -0.946748 0.152079 -0.327926 
-1.09893 0.00421429 -0.460715 -0.945406 0.00899869 -0.396463 -0.961418 0.0374592 -0.408058 
-0.924576 0.0511574 -0.393927 -0.866267 0.0142154 -0.366419 -1.35203 -0.0695925 -0.476347 
-0.917176 0.0415461 -0.390376 -0.936105 0.0190654 -0.395407 -1.01101 0.0397857 -0.427931 
-0.888346 0.0810825 -0.300325 -0.85099 0.0883647 -0.343285 -0.935315 0.0880776 -0.386227 
-0.956649 0.101196 -0.389164 -0.970298 0.0624107 -0.405729 -0.935148 0.127192 -0.351919 
-0.968703 0.0297509 -0.351186 -1.058 -0.100833 -0.456941 -1.23778 0.011101 -0.487412 
-1.08854 0.252172 -0.488708 -0.933024 0.137994 -0.35914 -0.904445 0.0986827 -0.38895 
-0.830551 0.0706316 -0.407413 -0.971582 0.00110226 -0.416216 -0.993294 -0.0724457 -0.417535 
-1.06673 -0.145071 -0.463882 -0.959437 0.12514 -0.367037 -0.912685 0.121564 -0.358871 
-1.05986 -0.0450403 -0.42463 -1.10518 0.431571 -0.738617 -0.953995 -0.0131811 -0.338611 
-0.804801 0.0509534 -0.343367 -0.775363 0.172931 -0.3547 -0.948066 -0.0236377 -0.334548 
-0.98399 0.14367 -0.384758 -1.00584 0.0210858 -0.427569 -0.893869 0.0225146 -0.40552 
-0.926788 0.0297602 -0.384611 -0.935639 0.00789471 -0.397486 -0.939426 0.0032596 -0.393897 
-0.908105 0.035254 -0.384287 -0.929452 0.0661241 -0.386082 -0.926211 0.0494997 -0.385176 
-0.924163 -0.0730708 -0.402162 -0.893733 -0.0509855 -0.37732 -1.05766 -0.0403426 -0.445302 
-1.07105 -0.0784273 -0.48334 -0.866896 0.0951773 -0.244476 -1.1632 -0.101019 -0.487754 
-0.784833 -0.00334679 -0.301923 -1.03996 -0.218669 -0.418594 -0.92244 0.0175142 -0.392049 
-1.0843 0.0840401 -0.586624 -1.02978 -0.0861559 -0.42841 -1.01979 -0.0775548 -0.437691 
-0.829953 -0.124589 -0.317182 -0.89442 -0.0733701 -0.389322 -0.795173 -0.0676143 -0.335692 
-0.973813 0.0201041 -0.432871 -0.790171 0.0135109 -0.32618 -1.06202 -0.0384554 -0.450967 
-0.917902 0.0723759 -0.377193 -1.02223 -0.0297355 -0.435334 -1.48717 -0.00404977 -0.721736 
-0.862652 -0.0363302 -0.363914 -0.883116 -0.040265 -0.381236 -0.88296 -0.0614335 -0.377899 
-0.983085 -0.03247 -0.419475 -1.00705 -0.0267257 -0.421738 -0.894538 0.0478044 -0.364383 
-0.87001 -0.0982771 -0.377883 -0.916763 0.0659755 -0.362208 -0.918379 -0.0725128 -0.387831 
-0.896216 -0.040698 -0.389674 -0.672128 0.102664 -0.368871 -0.895764 -0.0659315 -0.481413 
-1.10109 -0.00610412 -0.730805 -0.893781 0.0513322 -0.362116 -0.897495 0.00988993 -0.36975 
-0.93023 0.022696 -0.384891 -1.10521 0.113464 -0.417976 -0.981838 -0.0326303 -0.395165 
-0.942077 0.0221746 -0.412575 -0.917081 0.0380636 -0.425874 -0.764273 0.0103663 -0.317321 
-0.862439 0.0175781 -0.368813 -0.890058 0.0539324 -0.380153 -0.887881 0.0625118 -0.366692 
-0.994936 -0.0377772 -0.416725 -1.06315 0.0670494 -0.386328 -0.883226 0.00597752 -0.375259 
-0.891846 -0.058437 -0.352904 -0.787351 0.0870306 -0.341516 -0.751339 0.0708794 -0.303887 