# vtk DataFile Version 4.0
Generated by LIGGGHTS
ASCII
DATASET POLYDATA
POINTS 671 float
-0.475647 0.000352294 -0.362496 -0.45547 -0.000420936 -0.346078 -0.477953 -0.0447925 -0.34427 
-0.460938 0.0315533 -0.342043 -0.443158 0.0222122 -0.329861 -0.427846 -0.00228301 -0.326951 
-0.44669 0.0306911 -0.32545 -0.440369 0.0346083 -0.326568 -0.425473 0.0167783 -0.315968 
-0.412095 -0.0357818 -0.303234 -0.424856 0.0137277 -0.305287 -0.420687 -0.0305105 -0.296995 
-0.406276 -0.0100795 -0.296491 -0.399737 -0.0214507 -0.292639 -0.391898 0.0122308 -0.29235 
-0.401281 0.0199893 -0.28999 -0.404588 0.0226057 -0.294089 -0.39429 -0.0266476 -0.289531 
-0.395778 0.0142534 -0.28811 -0.38712 -0.00640067 -0.283657 -0.392822 0.00719628 -0.285907 
-0.385606 -0.00675528 -0.280225 -0.37509 0.0023077 -0.273658 -0.37425 0.0107396 -0.274666 
-0.382046 0.0265128 -0.272728 -0.384175 0.0321968 -0.273603 -0.391828 -0.044003 -0.271512 
-0.371449 -0.0138724 -0.269672 -0.360728 -0.00327362 -0.270803 -0.367489 0.00252213 -0.267708 
-0.375009 0.0171204 -0.269853 -0.388564 0.050184 -0.270451 -0.369508 -0.00830328 -0.265725 
-0.364252 -0.0251288 -0.261275 -0.359644 0.00401348 -0.26124 -0.363061 0.0178927 -0.26317 
-0.355107 0.00314751 -0.25828 -0.358652 0.0142812 -0.258397 -0.356476 0.0238322 -0.25709 
-0.34789 -0.000964914 -0.254631 -0.344204 0.00281174 -0.253207 -0.344897 -0.0136986 -0.250114 
-0.341535 -0.00876563 -0.250629 -0.336343 0.00119986 -0.248646 -0.339443 0.00550617 -0.248852 
-0.341591 -0.0241311 -0.247354 -0.335116 -0.00941852 -0.247411 -0.329888 -0.00820341 -0.244774 
-0.33608 0.011223 -0.247847 -0.331998 -0.0117027 -0.243086 -0.326405 -0.011483 -0.242978 
-0.317923 -0.000325922 -0.24019 -0.329231 0.00177973 -0.243957 -0.322831 0.00341089 -0.24206 
-0.334072 0.027022 -0.242386 -0.337473 0.0286158 -0.244185 -0.374938 -0.0579418 -0.241098 
-0.326023 -0.0293173 -0.23788 -0.319329 -0.0206306 -0.238561 -0.317192 -0.0184052 -0.238051 
-0.332336 -0.0111864 -0.240166 -0.313139 -0.00874867 -0.237722 -0.310671 -0.00166005 -0.237081 
-0.318982 0.00376589 -0.24041 -0.324117 0.0204106 -0.240539 -0.338001 0.0430967 -0.238389 
-0.317871 -0.0299594 -0.234483 -0.313519 -0.0125405 -0.23628 -0.305738 -0.0113165 -0.23439 
-0.310027 0.00140438 -0.236786 -0.307538 0.0026609 -0.235447 -0.308861 0.0136548 -0.235474 
-0.315173 0.0278124 -0.23493 -0.296364 -0.0103042 -0.230559 -0.29842 0.00902919 -0.230325 
-0.314213 0.0312089 -0.231865 -0.292248 -0.0147142 -0.227259 -0.289444 -0.00772864 -0.227915 
-0.294315 0.0088221 -0.229692 -0.295955 0.0125893 -0.23014 -0.278954 -0.0176122 -0.22235 
-0.279877 -0.00943954 -0.223717 -0.27716 -0.0076699 -0.222737 -0.286217 -0.00546901 -0.225548 
-0.28863 0.0258202 -0.223669 -0.279656 -0.0279215 -0.220495 -0.280134 -0.0212285 -0.220936 
-0.27116 -0.0176766 -0.219115 -0.278747 -0.0136534 -0.221535 -0.274161 -0.01107 -0.221141 
-0.291154 -0.00987441 -0.224409 -0.276677 -0.0035925 -0.22154 -0.26803 -0.00475017 -0.218984 
-0.272228 -0.000510583 -0.219819 -0.275125 0.00462503 -0.221903 -0.272892 0.00688881 -0.220852 
-0.274628 0.0140421 -0.219867 -0.274168 0.0221475 -0.219446 -0.298168 -0.0499803 -0.219137 
-0.283067 -0.0397704 -0.217875 -0.280712 -0.0349696 -0.217668 -0.272199 -0.0212572 -0.218876 
-0.268162 -0.0181839 -0.217777 -0.262139 -0.0110965 -0.216099 -0.281779 -0.00955874 -0.219354 
-0.266919 0.00635685 -0.217268 -0.263251 0.00330626 -0.21696 -0.26415 0.0102554 -0.216851 
-0.266527 0.0125354 -0.217762 -0.264809 0.0147114 -0.216281 -0.279856 0.0304279 -0.218648 
-0.274803 0.0284786 -0.217602 -0.273831 0.0332906 -0.216426 -0.265403 -0.0290973 -0.214169 
-0.264265 -0.0248957 -0.21483 -0.256192 -0.0169087 -0.212898 -0.253785 -0.0165735 -0.211045 
-0.259446 -0.0117131 -0.214857 -0.259824 0.00878505 -0.215245 -0.257147 0.00781309 -0.214007 
-0.252496 0.0101014 -0.212121 -0.259399 0.0144083 -0.21453 -0.256348 -0.0198538 -0.212043 
-0.249752 -0.0168916 -0.210068 -0.25698 -0.0123893 -0.211167 -0.253608 -0.0109361 -0.209511 
-0.250827 -0.0100223 -0.211478 -0.247229 -0.0113576 -0.209774 -0.246476 0.00283185 -0.209874 
-0.253725 0.0140615 -0.212185 -0.256002 0.0211629 -0.212064 -0.283004 -0.0562968 -0.209592 
-0.251542 -0.0385473 -0.205667 -0.250013 -0.0319292 -0.205888 -0.244967 -0.0312375 -0.205168 
-0.241834 -0.0232372 -0.205833 -0.240943 -0.0126831 -0.207014 -0.241726 -0.00595642 -0.207838 
-0.239235 0.000614349 -0.205806 -0.235651 0.00316644 -0.205293 -0.242814 0.00703782 -0.208179 
-0.245407 0.0301397 -0.205684 -0.241869 -0.035593 -0.202681 -0.26292 -0.0197913 -0.203677 
-0.23941 -0.0176914 -0.204642 -0.233676 0.0129207 -0.20389 -0.252074 0.0468848 -0.201535 
-0.222467 -0.0125338 -0.199056 -0.220714 -0.00576704 -0.197893 -0.225131 -0.0032406 -0.199906 
-0.227097 0.00414286 -0.201555 -0.225479 0.0110319 -0.199579 -0.230254 0.0157653 -0.20096 
-0.226381 0.0259844 -0.198805 -0.236827 0.0406315 -0.197867 -0.229762 -0.036656 -0.197436 
-0.221057 -0.0151943 -0.193728 -0.216778 -0.00985763 -0.1968 -0.214038 -0.00782416 -0.193943 
-0.209371 -0.00588909 -0.194265 -0.216282 -0.00351444 -0.19613 -0.212864 0.0035729 -0.194583 
-0.212695 0.00871295 -0.194413 -0.221549 0.0174822 -0.197111 -0.224984 0.022343 -0.197922 
-0.258076 0.0611165 -0.197084 -0.218562 -0.0367968 -0.191768 -0.213493 -0.0255341 -0.193344 
-0.207622 -0.0125735 -0.19284 -0.206506 -0.00748763 -0.19179 -0.207044 0.00536885 -0.193217 
-0.205364 0.00969735 -0.192263 -0.209686 0.0147786 -0.19356 -0.210366 0.0270881 -0.19184 
-0.210973 -0.00214258 -0.189615 -0.225018 0.0149119 -0.187357 -0.208658 -0.00735944 -0.184887 
-0.206693 -0.00286065 -0.188724 -0.210955 0.0579953 -0.18088 -0.220404 0.0591857 -0.182498 
-0.216909 0.0115071 -0.178835 -0.21559 0.0246838 -0.17895 -0.212573 0.0690918 -0.17482 
-0.20437 -0.000525292 -0.191064 -0.203839 -0.0428545 -0.183684 -0.203585 -0.0157201 -0.18807 
-0.0550161 0.02566 -0.12623 -0.0730929 0.0508905 -0.128987 -0.196265 -0.01407 -0.187944 
-0.198242 -0.0103959 -0.189187 -0.198099 -0.00226282 -0.189459 -0.199022 0.00153004 -0.189861 
-0.197954 0.00635782 -0.188343 -0.198875 0.0258747 -0.187319 -0.050806 0.000174072 -0.127467 
-0.19114 -0.00918829 -0.185273 -0.191323 -0.00357874 -0.185433 -0.193951 0.000546803 -0.186634 
-0.189828 0.000593422 -0.185913 -0.191541 0.00482913 -0.185666 -0.187346 0.00674117 -0.184468 
-0.189592 0.00875235 -0.18565 -0.187009 0.00984074 -0.183843 -0.194894 0.0108138 -0.186634 
-0.196165 0.019503 -0.186316 -0.180466 -0.00884074 -0.181876 -0.182665 -0.00511122 -0.182876 
-0.185859 -0.0013773 -0.183216 -0.178265 0.00542259 -0.181139 -0.17794 0.0185691 -0.17987 
-0.190081 -0.0433731 -0.177911 -0.180371 -0.0325465 -0.177115 -0.183884 -0.0314854 -0.179876 
-0.175974 -0.0202722 -0.178801 -0.175204 -0.0101696 -0.179607 -0.172541 -0.00856129 -0.178597 
-0.174456 -0.0046533 -0.178359 -0.171331 0.00787947 -0.177757 -0.168407 0.00735277 -0.176127 
-0.175476 0.0153018 -0.179113 -0.179552 0.0249457 -0.17941 -0.194494 0.0507646 -0.178227 
-0.177385 -0.0401722 -0.174956 -0.166277 -0.0216538 -0.173424 -0.166068 -0.0113476 -0.1745 
-0.160011 -0.0111305 -0.173109 -0.164501 -0.004668 -0.175342 -0.171084 -0.000244805 -0.174686 
-0.160421 -0.000356872 -0.173588 -0.169568 0.00318682 -0.176467 -0.163217 0.00580971 -0.174805 
-0.174622 0.0075956 -0.175808 -0.169301 0.0115863 -0.175699 -0.163881 0.0105885 -0.17466 
-0.160767 0.0161913 -0.1729 -0.16941 0.0266609 -0.174401 -0.169415 0.0340857 -0.173402 
-0.179658 0.040189 -0.175813 -0.198526 0.0623926 -0.173942 -0.160633 -0.0193789 -0.172497 
-0.158176 -0.014788 -0.17095 -0.153707 -0.0144853 -0.17018 -0.152214 -0.0119123 -0.169778 
-0.164108 -0.0108749 -0.169838 -0.149825 -0.00819791 -0.168972 -0.151313 -0.00432629 -0.169822 
-0.156345 -0.00288607 -0.171912 -0.159025 0.00759113 -0.172752 -0.15667 0.0178644 -0.169921 
-0.170176 0.024551 -0.169097 -0.161419 0.0283613 -0.171139 -0.162385 0.0365933 -0.169855 
-0.144697 -0.0194988 -0.165813 -0.150074 -0.0157843 -0.168524 -0.145599 -0.0147598 -0.166654 
-0.14902 -0.0118024 -0.167363 -0.147458 -0.00176124 -0.168229 -0.151614 0.00333485 -0.168817 
-0.16057 0.011269 -0.169704 -0.145682 0.0113911 -0.16705 -0.152492 0.0219173 -0.168768 
-0.150523 0.0272663 -0.166935 -0.162069 -0.0513108 -0.164996 -0.140876 -0.031838 -0.162076 
-0.141934 -0.0219174 -0.164342 -0.139701 -0.0149725 -0.164188 -0.147462 -0.0130624 -0.163615 
-0.137963 -0.0125225 -0.163698 -0.136118 -0.00739616 -0.162182 -0.14309 -0.00622747 -0.165192 
-0.133986 -0.0038563 -0.162461 -0.14735 0.00209337 -0.165974 -0.140541 0.000422849 -0.165286 
-0.136342 0.0012532 -0.163463 -0.134677 0.00381396 -0.162644 -0.137312 0.0105146 -0.163574 
-0.136443 0.00758459 -0.163329 -0.16073 0.0139176 -0.162839 -0.15226 0.0177632 -0.165492 
-0.141549 0.014496 -0.163924 -0.140886 0.0242315 -0.162444 -0.149178 0.031926 -0.165471 
-0.149522 0.0357599 -0.164811 -0.137421 -0.0216957 -0.162406 -0.132978 -0.0141151 -0.161485 
-0.132139 -0.0177352 -0.160795 -0.144868 -0.0122659 -0.160325 -0.129341 -0.0138624 -0.158891 
-0.130471 -0.00721266 -0.160921 -0.124744 -0.00404682 -0.158616 -0.150049 -0.000308096 -0.162545 
-0.131757 0.00172008 -0.160538 -0.134091 0.0103187 -0.161118 -0.129804 0.0087387 -0.158803 
-0.13418 0.0153227 -0.160744 -0.130831 0.018921 -0.158813 -0.159812 0.0221053 -0.162922 
-0.137654 0.0303978 -0.160946 -0.148297 0.0335256 -0.160613 -0.131299 -0.0382504 -0.156673 
-0.12685 -0.035994 -0.155314 -0.126012 -0.0226254 -0.157504 -0.138514 -0.0186995 -0.159527 
-0.128304 -0.0189841 -0.157897 -0.123116 -0.00911444 -0.156582 -0.132259 -0.00665906 -0.156369 
-0.128475 -0.000619527 -0.156853 -0.122241 -0.00237494 -0.157568 -0.119013 -0.00168215 -0.155106 
-0.125074 0.00706088 -0.158501 -0.125571 0.0134187 -0.158349 -0.123517 -0.0325998 -0.152915 
-0.111226 -0.0206772 -0.151578 -0.115058 -0.0132969 -0.15399 -0.11786 -0.00982285 -0.154324 
-0.113549 -0.00831555 -0.152272 -0.111108 -0.00477303 -0.152851 -0.108007 -0.00669185 -0.151436 
[...]
POINT_DATA 671
FIELD FieldData 7
id 1 671 int
16 30 34 31 3 19 26 68 32 
2 27 108 7 99 22 5 1 33 
21 6 60 23 13 36 28 11 58 
10 142 57 41 38 92 79 40 8 
101 130 48 54 42 4 63 46 14 
67 53 49 44 88 83 134 29 122 
93 59 126 76 20 62 162 50 100 
45 43 75 104 15 18 87 85 148 
72 132 51 114 116 69 70 71 109 
84 35 17 177 61 52 12 166 47 
181 64 156 77 158 174 154 37 163 
147 39 74 94 96 192 65 145 73 
133 82 91 233 146 120 112 125 175 
111 55 25 150 95 245 187 167 188 
138 200 136 118 98 81 137 176 86 
110 196 182 244 143 157 222 231 103 
89 274 139 186 78 90 257 227 66 
198 140 159 203 144 204 209 128 153 
127 105 80 124 268 232 224 228 121 
135 97 113 234 270 281 246 265 216 
304 327 201 202 165 171 421 477 194 
170 123 185 141 161 450 191 117 243 
155 164 239 259 262 178 215 218 211 
102 180 206 230 129 287 119 219 252 
152 260 309 131 271 238 290 205 214 
208 149 302 236 282 314 277 151 220 
288 278 258 199 183 275 189 251 250 
254 106 284 172 289 318 292 223 210 
286 212 221 115 207 190 279 160 184 
299 347 320 315 249 295 169 217 193 
168 307 308 345 333 197 310 300 293 
266 256 311 325 312 225 313 317 229 
235 247 272 240 269 305 267 242 342 
323 301 107 348 365 337 179 253 372 
379 285 331 322 261 355 237 321 241 
316 273 248 297 329 226 291 280 352 
213 324 373 381 374 328 371 338 335 
326 330 349 380 389 264 370 283 173 
392 332 319 294 255 350 303 344 358 
359 394 378 341 334 354 405 413 346 
391 336 296 276 395 298 339 362 384 
396 400 376 388 385 375 382 404 398 
432 351 393 306 367 340 412 369 383 
403 408 343 363 415 409 387 364 397 
386 419 446 478 407 410 356 418 441 
360 425 437 430 402 414 479 390 417 
353 435 426 411 377 452 406 401 480 
416 665 669 671 368 453 399 668 662 
445 674 673 672 431 666 664 670 464 
422 434 460 504 361 513 428 357 472 
427 469 366 429 490 443 475 500 449 
463 195 486 489 433 494 493 424 442 
482 476 492 448 518 465 444 495 436 
468 457 514 517 423 447 519 420 506 
466 503 509 499 511 455 458 487 440 
523 505 454 498 526 485 438 483 481 
516 507 461 459 530 502 531 501 473 
512 508 524 470 484 462 467 491 439 
525 510 515 488 451 474 497 471 496 
532 529 520 528 527 521 522 263 542 
537 534 540 535 538 456 543 545 539 
544 541 553 536 550 533 549 555 551 
546 556 552 557 548 547 554 565 563 
570 558 561 560 568 567 566 559 569 
562 564 577 578 580 583 582 573 572 
581 571 575 576 574 594 579 596 593 
588 591 589 592 584 586 595 585 590 
587 602 603 607 608 601 600 604 597 
599 605 606 619 609 621 598 617 618 
614 620 615 622 616 610 611 613 630 
612 628 623 634 632 625 635 629 626 
627 624 633 631 637 645 644 642 641 
648 639 638 647 636 643 654 640 659 
655 660 646 658 656 650 653 649 651 
652 661 657 663 667 
type 1 671 int
1 1 1 1 1 1 1 1 1 
1 1 1 1 1 1 1 1 1 
1 1 1 1 1 1 1 1 1 
1 1 1 1 1 1 1 1 1 
1 1 1 1 1 1 1 1 1 
1 1 1 1 1 1 1 1 1 
1 1 1 1 1 1 1 1 1 
1 1 1 1 1 1 1 1 1 
1 1 1 1 1 1 1 1 1 
1 1 1 1 1 1 1 1 1 
1 1 1 1 1 1 1 1 1 
1 1 1 1 1 1 1 1 1 
1 1 1 1 1 1 1 1 1 
1 1 1 1 1 1 1 1 1 
1 1 1 1 1 1 1 1 1 
1 1 1 1 1 1 1 1 1 
1 1 1 1 1 1 1 1 1 
1 1 1 1 1 1 1 1 1 
1 1 1 1 1 1 1 1 1 
1 1 1 1 1 1 1 1 1 
1 1 1 1 1 1 1 1 1 
1 1 1 1 1 1 1 1 1 
1 1 1 1 1 1 1 1 1 
1 1 1 1 1 1 1 1 1 
1 1 1 1 1 1 1 1 1 
1 1 1 1 1 1 1 1 1 
1 1 1 1 1 1 1 1 1 
1 1 1 1 1 1 1 1 1 
1 1 1 1 1 1 1 1 1 
1 1 1 1 1 1 1 1 1 
1 1 1 1 1 1 1 1 1 
1 1 1 1 1 1 1 1 1 
1 1 1 1 1 1 1 1 1 
1 1 1 1 1 1 1 1 1 
1 1 1 1 1 1 1 1 1 
1 1 1 1 1 1 1 1 1 
1 1 1 1 1 1 1 1 1 
1 1 1 1 1 1 1 1 1 
1 1 1 1 1 1 1 1 1 
1 1 1 1 1 1 1 1 1 
1 1 1 1 1 1 1 1 1 
1 1 1 1 1 1 1 1 1 
1 1 1 1 1 1 1 1 1 
1 1 1 1 1 1 1 1 1 
1 1 1 1 1 1 1 1 1 
1 1 1 1 1 1 1 1 1 
1 1 1 1 1 1 1 1 1 
1 1 1 1 1 1 1 1 1 
1 1 1 1 1 1 1 1 1 
1 1 1 1 1 1 1 1 1 
1 1 1 1 1 1 1 1 1 
1 1 1 1 1 1 1 1 1 
1 1 1 1 1 1 1 1 1 
1 1 1 1 1 1 1 1 1 
1 1 1 1 1 1 1 1 1 
1 1 1 1 1 1 1 1 1 
1 1 1 1 1 1 1 1 1 
1 1 1 1 1 1 1 1 1 
1 1 1 1 1 1 1 1 1 
1 1 1 1 1 1 1 1 1 
1 1 1 1 1 1 1 1 1 
1 1 1 1 1 1 1 1 1 
1 1 1 1 1 1 1 1 1 
1 1 1 1 1 1 1 1 1 
1 1 1 1 1 1 1 1 1 
1 1 1 1 1 1 1 1 1 
1 1 1 1 1 1 1 1 1 
1 1 1 1 1 1 1 1 1 
1 1 1 1 1 1 1 1 1 
1 1 1 1 1 1 1 1 1 
1 1 1 1 1 1 1 1 1 
1 1 1 1 1 1 1 1 1 
1 1 1 1 1 1 1 1 1 
1 1 1 1 1 1 1 1 1 
1 1 1 1 1 
i 3 671 int
0 0 0 0 0 0 0 0 0 
0 0 0 0 0 0 0 0 0 
0 0 0 0 0 0 0 0 0 
0 0 0 0 0 0 0 0 0 
0 0 0 0 0 0 0 0 0 
0 0 0 0 0 0 0 0 0 
0 0 0 0 0 0 0 0 0 
0 0 0 0 0 0 0 0 0 
0 0 0 0 0 0 0 0 0 
0 0 0 0 0 0 0 0 0 
0 0 0 0 0 0 0 0 0 
0 0 0 0 0 0 0 0 0 
0 0 0 0 0 0 0 0 0 
0 0 0 0 0 0 0 0 0 
0 0 0 0 0 0 0 0 0 
0 0 0 0 0 0 0 0 0 
0 0 0 0 0 0 0 0 0 
0 0 0 0 0 0 0 0 0 
0 0 0 0 0 0 0 0 0 
0 0 0 0 0 0 0 0 0 
0 0 0 0 0 0 0 0 0 
0 0 0 0 0 0 0 0 0 
0 0 0 0 0 0 0 0 0 
0 0 0 0 0 0 0 0 0 
0 0 0 0 0 0 0 0 0 
0 0 0 0 0 0 0 0 0 
0 0 0 0 0 0 0 0 0 
0 0 0 0 0 0 0 0 0 
0 0 0 0 0 0 0 0 0 
0 0 0 0 0 0 0 0 0 
0 0 0 0 0 0 0 0 0 
0 0 0 0 0 0 0 0 0 
0 0 0 0 0 0 0 0 0 
0 0 0 0 0 0 0 0 0 
0 0 0 0 0 0 0 0 0 
0 0 0 0 0 0 0 0 0 
0 0 0 0 0 0 0 0 0 
0 0 0 0 0 0 0 0 0 
0 0 0 0 0 0 0 0 0 
0 0 0 0 0 0 0 0 0 
0 0 0 0 0 0 0 0 0 
0 0 0 0 0 0 0 0 0 
0 0 0 0 0 0 0 0 0 
0 0 0 0 0 0 0 0 0 
0 0 0 0 0 0 0 0 0 
0 0 0 0 0 0 0 0 0 
0 0 0 0 0 0 0 0 0 
0 0 0 0 0 0 0 0 0 
0 0 0 0 0 0 0 0 0 
0 0 0 0 0 0 0 0 0 
0 0 0 0 0 0 0 0 0 
0 0 0 0 0 0 0 0 0 
0 0 0 0 0 0 0 0 0 
0 0 0 0 0 0 0 0 0 
0 0 0 0 0 0 0 0 0 
0 0 0 0 0 0 0 0 0 
0 0 0 0 0 0 0 0 0 
0 0 0 0 0 0 0 0 0 
0 0 0 0 0 0 0 0 0 
0 0 0 0 0 0 0 0 0 
0 0 0 0 0 0 0 0 0 
0 0 0 0 0 0 0 0 0 
0 0 0 0 0 0 0 0 0 
0 0 0 0 0 0 0 0 0 
0 0 0 0 0 0 0 0 0 
0 0 0 0 0 0 0 0 0 
0 0 0 0 0 0 0 0 0 
0 0 0 0 0 0 0 0 0 
0 0 0 0 0 0 0 0 0 
0 0 0 0 0 0 0 0 0 
0 0 0 0 0 0 0 0 0 
0 0 0 0 0 0 0 0 0 
0 0 0 0 0 0 0 0 0 
0 0 0 0 0 0 0 0 0 
0 0 0 0 0 0 0 0 0 
0 0 0 0 0 0 0 0 0 
0 0 0 0 0 0 0 0 0 
0 0 0 0 0 0 0 0 0 
0 0 0 0 0 0 0 0 0 
0 0 0 0 0 0 0 0 0 
0 0 0 0 0 0 0 0 0 
0 0 0 0 0 0 0 0 0 
0 0 0 0 0 0 0 0 0 
0 0 0 0 0 0 0 0 0 
0 0 0 0 0 0 0 0 0 
0 0 0 0 0 0 0 0 0 
0 0 0 0 0 0 0 0 0 
0 0 0 0 0 0 0 0 0 
0 0 0 0 0 0 0 0 0 
0 0 0 0 0 0 0 0 0 
0 0 0 0 0 0 0 0 0 
0 0 0 0 0 0 0 0 0 
0 0 0 0 0 0 0 0 0 
0 0 0 0 0 0 0 0 0 
0 0 0 0 0 0 0 0 0 
0 0 0 0 0 0 0 0 0 
0 0 0 0 0 0 0 0 0 
0 0 0 0 0 0 0 0 0 
0 0 0 0 0 0 0 0 0 
0 0 0 0 0 0 0 0 0 
0 0 0 0 0 0 0 0 0 
0 0 0 0 0 0 0 0 0 
0 0 0 0 0 0 0 0 0 
0 0 0 0 0 0 0 0 0 
0 0 0 0 0 0 0 0 0 
0 0 0 0 0 0 0 0 0 
0 0 0 0 0 0 0 0 0 
0 0 0 0 0 0 0 0 0 
0 0 0 0 0 0 0 0 0 
0 0 0 0 0 0 0 0 0 
0 0 0 0 0 0 0 0 0 
0 0 0 0 0 0 0 0 0 
0 0 0 0 0 0 0 0 0 
0 0 0 0 0 0 0 0 0 
0 0 0 0 0 0 0 0 0 
0 0 0 0 0 0 0 0 0 
0 0 0 0 0 0 0 0 0 
0 0 0 0 0 0 0 0 0 
0 0 0 0 0 0 0 0 0 
0 0 0 0 0 0 0 0 0 
0 0 0 0 0 0 0 0 0 
0 0 0 0 0 0 0 0 0 
0 0 0 0 0 0 0 0 0 
0 0 0 0 0 0 0 0 0 
0 0 0 0 0 0 0 0 0 
0 0 0 0 0 0 0 0 0 
0 0 0 0 0 0 0 0 0 
0 0 0 0 0 0 0 0 0 
0 0 0 0 0 0 0 0 0 
0 0 0 0 0 0 0 0 0 
0 0 0 0 0 0 0 0 0 
0 0 0 0 0 0 0 0 0 
0 0 0 0 0 0 0 0 0 
0 0 0 0 0 0 0 0 0 
0 0 0 0 0 0 0 0 0 
0 0 0 0 0 0 0 0 0 
0 0 0 0 0 0 0 0 0 
0 0 0 0 0 0 0 0 0 
0 0 0 0 0 0 0 0 0 
0 0 0 0 0 0 0 0 0 
0 0 0 0 0 0 0 0 0 
0 0 0 0 0 0 0 0 0 
0 0 0 0 0 0 0 0 0 
0 0 0 0 0 0 0 0 0 
0 0 0 0 0 0 0 0 0 
0 0 0 0 0 0 0 0 0 
0 0 0 0 0 0 0 0 0 
0 0 0 0 0 0 0 0 0 
0 0 0 0 0 0 0 0 0 
0 0 0 0 0 0 0 0 0 
0 0 0 0 0 0 0 0 0 
0 0 0 0 0 0 0 0 0 
0 0 0 0 0 0 0 0 0 
0 0 0 0 0 0 0 0 0 
0 0 0 0 0 0 0 0 0 
0 0 0 0 0 0 0 0 0 
0 0 0 0 0 0 0 0 0 
0 0 0 0 0 0 0 0 0 
0 0 0 0 0 0 0 0 0 
0 0 0 0 0 0 0 0 0 
0 0 0 0 0 0 0 0 0 
0 0 0 0 0 0 0 0 0 
0 0 0 0 0 0 0 0 0 
0 0 0 0 0 0 0 0 0 
0 0 0 0 0 0 0 0 0 
0 0 0 0 0 0 0 0 0 
0 0 0 0 0 0 0 0 0 
0 0 0 0 0 0 0 0 0 
0 0 0 0 0 0 0 0 0 
0 0 0 0 0 0 0 0 0 
0 0 0 0 0 0 0 0 0 
0 0 0 0 0 0 0 0 0 
0 0 0 0 0 0 0 0 0 
0 0 0 0 0 0 0 0 0 
0 0 0 0 0 0 0 0 0 
0 0 0 0 0 0 0 0 0 
0 0 0 0 0 0 0 0 0 
0 0 0 0 0 0 0 0 0 
0 0 0 0 0 0 0 0 0 
0 0 0 0 0 0 0 0 0 
0 0 0 0 0 0 0 0 0 
0 0 0 0 0 0 0 0 0 
0 0 0 0 0 0 0 0 0 
0 0 0 0 0 0 0 0 0 
0 0 0 0 0 0 0 0 0 
0 0 0 0 0 0 0 0 0 
0 0 0 0 0 0 0 0 0 
0 0 0 0 0 0 0 0 0 
0 0 0 0 0 0 0 0 0 
0 0 0 0 0 0 0 0 0 
0 0 0 0 0 0 0 0 0 
0 0 0 0 0 0 0 0 0 
0 0 0 0 0 0 0 0 0 
0 0 0 0 0 0 0 0 0 
0 0 0 0 0 0 0 0 0 
0 0 0 0 0 0 0 0 0 
0 0 0 0 0 0 0 0 0 
0 0 0 0 0 0 0 0 0 
0 0 0 0 0 0 0 0 0 
0 0 0 0 0 0 0 0 0 
0 0 0 0 0 0 0 0 0 
0 0 0 0 0 0 0 0 0 
0 0 0 0 0 0 0 0 0 
0 0 0 0 0 0 0 0 0 
0 0 0 0 0 0 0 0 0 
0 0 0 0 0 0 0 0 0 
0 0 0 0 0 0 0 0 0 
0 0 0 0 0 0 0 0 0 
0 0 0 0 0 0 0 0 0 
0 0 0 0 0 0 0 0 0 
0 0 0 0 0 0 0 0 0 
0 0 0 0 0 0 0 0 0 
0 0 0 0 0 0 0 0 0 
0 0 0 0 0 0 0 0 0 
0 0 0 0 0 0 0 0 0 
0 0 0 0 0 0 0 0 0 
0 0 0 0 0 0 0 0 0 
0 0 0 0 0 0 0 0 0 
0 0 0 0 0 0 0 0 0 
0 0 0 0 0 0 0 0 0 
0 0 0 0 0 0 0 0 0 
0 0 0 0 0 0 0 0 0 
0 0 0 0 0 0 0 0 0 
0 0 0 0 0 0 
v 3 671 double
-1.38458 0.0121135 -1.6411 -1.31226 0.152563 -1.53667 -1.39956 0.0102656 -1.56717 
-1.33504 -0.0723053 -1.54886 -1.35171 0.195162 -1.43621 -1.14656 0.0761887 -1.38024 
-1.34235 -0.114898 -1.46337 -1.2104 -0.111715 -1.48169 -1.29371 0.154395 -1.32163 
-1.12274 0.0154003 -1.26395 -1.37864 0.0410424 -1.36644 -1.34684 0.255768 -1.28938 
-1.28265 -0.0239591 -1.16096 -1.29568 0.280331 -1.26934 -1.14007 0.0619945 -1.13443 
-1.25753 0.0630385 -1.08221 -1.26435 0.0221371 -1.2027 -1.18685 -0.0202596 -1.13549 
-1.27086 -0.0159577 -1.10194 -1.17123 0.0260053 -1.04332 -1.17479 0.0230187 -1.02991 
-1.20375 0.00503665 -0.981892 -1.21196 0.0390049 -0.940253 -1.08435 0.0642844 -0.925989 
-1.2302 0.00574051 -0.964548 -1.22067 0.0285474 -0.96996 -1.28551 0.102613 -1.06518 
-1.116 0.019221 -0.870012 -1.36559 -0.0590547 -1.28381 -1.22662 -0.116708 -0.88899 
-1.24643 -0.117866 -0.952528 -1.0323 0.152826 -0.909801 -1.34796 0.269572 -0.928838 
-1.10241 -0.0910185 -0.786278 -1.19979 -0.0555813 -0.815885 -1.22068 -0.298572 -0.916827 
-1.20344 -0.0768672 -0.781201 -1.37075 -0.249623 -0.877386 -1.19319 -0.0892842 -0.788515 
-1.08092 -0.0613343 -0.694862 -1.07951 0.0100131 -0.657661 -1.31844 0.0999611 -0.693878 
-0.973525 -0.054984 -0.612324 -1.1745 -0.054974 -0.620354 -1.20031 -0.116061 -0.654326 
-1.27485 0.17461 -0.74218 -0.950694 -0.0282768 -0.594425 -1.21623 0.0824053 -0.55665 
-1.16531 -0.100774 -0.615052 -0.984829 -0.0559996 -0.414276 -1.13593 0.0982091 -0.487545 
-0.914677 -0.0209598 -0.385382 -1.16483 0.0470791 -0.548581 -0.913346 -0.0732549 -0.39977 
-1.11646 -0.190801 -0.507079 -1.277 -0.273313 -0.687429 -1.19839 0.239857 -0.925525 
-1.22816 0.208558 -0.556326 -1.14672 0.250411 -0.512167 -1.15432 0.298349 -0.591248 
-1.08997 0.0236264 -0.466102 -1.12693 0.0283614 -0.473679 -1.05535 0.00456145 -0.445371 
-1.07842 0.0575397 -0.450913 -1.14832 -0.0493155 -0.501391 -1.27791 -0.159827 -0.663756 
-1.22488 0.203427 -0.591146 -1.13633 0.0217981 -0.4798 -1.08134 -0.0336169 -0.451197 
-1.06441 0.0342795 -0.446441 -1.03085 -0.0293342 -0.46065 -1.0977 -0.10756 -0.47886 
-1.07708 -0.187861 -0.499415 -1.00941 -0.156232 -0.407199 -1.07614 0.042656 -0.450963 
-1.25689 0.0342867 -0.44931 -0.963522 -0.0203432 -0.402313 -1.0564 0.00706574 -0.445603 
-1.09501 -0.0401416 -0.46502 -1.15564 0.00329425 -0.485684 -0.645294 -0.0464284 -0.248894 
-0.879844 0.0140875 -0.371702 -0.832198 0.00338163 -0.351818 -1.05128 0.0130503 -0.443767 
-1.14727 -0.0204015 -0.472065 -1.08378 0.0394451 -0.45925 -1.0037 -0.0690759 -0.389836 
-0.926623 0.0870411 -0.400676 -0.983448 0.068064 -0.386713 -0.976523 0.0145404 -0.409963 
-1.16178 -0.0507698 -0.76998 -0.944129 0.0669779 -0.461532 -0.873919 -0.018064 -0.369694 
-1.09925 -0.0227083 -0.460709 -1.07948 0.105744 -0.436996 -1.04664 0.096512 -0.439972 
-1.15586 -0.0921662 -0.501532 -1.07487 -0.0368956 -0.445049 -1.18726 0.285344 -0.562055 
-1.05832 -0.0490622 -0.408692 -1.00773 -0.0070072 -0.369093 -0.88973 0.0277318 -0.378046 
-0.906486 0.0475855 -0.385063 -0.976275 0.0717722 -0.416212 -1.09506 -0.0318158 -0.599601 
-0.933468 -0.0197071 -0.391918 -0.9183 -0.0445568 -0.392532 -0.838827 -0.0294049 -0.423214 
-0.875748 -0.0125894 -0.358907 -0.956161 0.0732679 -0.258871 -0.883344 0.0709559 -0.33203 
-0.784284 -0.0492518 -0.320741 -1.23912 0.0184809 -0.490829 -1.14414 0.136715 -0.539808 
-0.781209 -0.0511115 -0.335532 -0.727166 -0.0284363 -0.319759 -0.790608 0.0173879 -0.196933 
-0.965311 0.117278 -0.446794 -1.01462 -0.0383569 -0.425237 -0.990475 0.0182945 -0.428899 
-0.914959 -0.0351789 -0.380796 -1.03747 -0.0294615 -0.443104 -1.19036 -0.0215585 -0.503963 
-0.829722 -0.0848165 -0.362491 -0.992768 0.13013 -0.337338 -0.955724 0.175348 -0.408319 
-1.0615 -0.17019 -0.441589 -1.03009 -0.138654 -0.380377 -0.972591 -0.0679206 -0.409796 
-1.02525 -0.0216101 -0.438105 -1.09717 -0.109638 -0.47821 -1.07424 0.321578 -0.554257 
-1.01027 0.230207 -0.486318 -0.992302 0.0374462 -0.431983 -0.858906 0.223596 -0.456221 
-1.00997 0.20101 -0.487267 -0.913491 0.147944 -0.41381 -1.00722 0.0203197 -0.423496 
-0.995749 0.172218 -0.418647 -1.0041 -0.0798513 -0.421137 -1.09398 -0.0755826 -0.463178 
-1.10658 -0.0226549 -0.453818 -1.11703 -0.0821103 -0.339059 -0.831998 -0.0824634 -0.272656 
-1.01898 -0.0714511 -0.397122 -0.994099 -0.0493576 -0.430634 -0.989339 0.0129069 -0.385372 
-0.869315 0.000859039 -0.349008 -0.862473 -0.0123684 -0.356291 -0.867957 0.0231663 -0.370153 
-0.87489 0.193311 -0.290004 -0.80583 0.0126296 -0.34244 -0.938984 -0.0493457 -0.395283 
-0.765198 0.110243 -0.285425 -0.865069 0.01902 -0.348158 -1.04473 -0.0236357 -0.407308 
-0.997842 -0.147229 -0.298418 -0.837899 -0.152771 -0.341665 -0.859813 -0.0513145 -0.276854 
-0.854069 0.126847 -0.365158 -0.870358 -0.064618 -0.373716 -0.736588 -0.0237696 -0.318495 
-0.892197 -0.0352955 -0.385116 -0.973262 0.0259951 -0.411675 -1.00684 -0.0279947 -0.42061 
-1.01027 -0.242699 -0.505215 -1.09155 -0.170099 -0.370298 -0.878501 -0.11568 -0.365767 
-0.780371 -0.0566112 -0.323014 -0.872283 0.0608048 -0.421911 -0.841782 -0.00674039 -0.350127 
-0.864183 0.095072 -0.359049 -0.801996 0.0121359 -0.334385 -0.876419 -0.152527 -0.409828 
-1.21758 0.317365 -0.562682 -1.08769 0.00294689 -0.379458 -1.15942 0.198165 -0.376843 
-0.983361 0.248642 -0.703627 -0.732409 -0.123229 -0.349598 -1.05126 -0.180436 -0.5227 
-1.4231 -0.13074 -0.676982 -1.02611 0.170517 -0.698015 -0.985516 -0.301113 -0.52967 
-0.821487 0.027877 -0.351249 -0.882117 -0.000168946 -0.363887 -0.942255 -0.0160329 -0.385257 
-0.583278 0.115145 -0.218847 -0.559182 0.505664 -0.0391873 -0.906196 -0.0548081 -0.377534 
-0.872478 -0.0378392 -0.355948 -0.75321 -0.0734517 -0.323193 -0.715515 -0.0216938 -0.306611 
-0.751077 0.0450159 -0.312638 -0.821896 -0.0174982 -0.35202 -0.435412 0.00177255 -0.43395 
-0.871681 -0.0336044 -0.355312 -0.794212 -0.066382 -0.32073 -0.735935 -3.54373e-05 -0.309297 
-0.702557 -0.0522291 -0.313271 -0.786786 -0.00206462 -0.326999 -0.685562 -5.02104e-05 -0.390802 
-0.791733 -0.0283874 -0.34121 -0.757133 -0.0760463 -0.272627 -0.929963 -0.0832289 -0.405724 
-0.820518 -0.103366 -0.388436 -0.743134 -0.0244992 -0.320371 -0.762508 -0.0920426 -0.324782 
-0.823699 -0.0712466 -0.351612 -0.839632 0.00557925 -0.356404 -0.794292 0.0257669 -0.329938 
-0.809353 0.0271699 -0.346203 -0.740068 0.0690493 -0.316263 -0.913804 -0.139317 -0.341961 
-0.736877 0.280587 -0.32911 -0.706052 -0.0377481 -0.298541 -0.744994 0.0356875 -0.303613 
-0.803331 -0.0159633 -0.330445 -0.721026 -0.0227381 -0.255867 -0.663604 -0.178612 -0.151341 
-0.810925 0.00447428 -0.343725 -0.664471 0.0073691 -0.276764 -1.03255 -0.000252445 -0.407665 
-1.03437 -0.0595027 -0.366329 -0.84494 -0.0732321 -0.326976 -0.665547 -0.0901951 -0.279591 
-0.652409 0.0145347 -0.27169 -0.689941 0.0231977 -0.287771 -0.882695 0.066339 -0.605899 
-0.543051 0.0728038 -0.235567 -0.845459 0.0795015 -0.412347 -0.936543 0.0505523 -0.38361 
-1.25017 0.0617535 -0.432673 -0.888757 -0.0597907 -0.388434 -0.838998 -0.0844703 -0.351358 
-0.768071 0.20502 -0.298054 -0.803593 0.053576 -0.296763 -0.851836 0.15096 -0.320463 
-0.830857 -0.0744526 -0.367409 -0.781142 -0.0738884 -0.305222 -0.825755 -0.0878313 -0.341186 
-0.69277 -0.0656752 -0.287547 -0.780131 0.0123284 -0.323301 -0.718835 -0.0210574 -0.304641 
-0.68939 -0.0829327 -0.244238 -0.641868 -0.140263 -0.260165 -0.617176 0.0176564 -0.264869 
-0.565538 0.0286212 -0.232356 -0.828286 0.162896 -0.383678 -0.88511 0.08674 -0.373706 
-1.05368 0.0855229 0.0203595 -1.01329 0.231438 -0.344714 -0.873853 -0.0156912 -0.36672 
-0.639475 -0.156872 -0.287949 -0.784222 0.0353881 -0.326506 -0.656953 -0.0425878 -0.281547 
-0.718169 -0.109212 -0.296508 -0.666587 -0.0444207 -0.294672 -0.76989 -0.0743839 -0.317394 
-0.854056 0.0814452 -0.460651 -0.541558 0.101869 -0.210021 -0.826702 0.0266237 -0.323946 
-0.813308 0.0628276 -0.316734 -1.0786 -0.0456449 -0.390254 -0.74776 -0.182825 -0.274809 
-0.670855 -0.0122003 -0.270957 -0.686141 -0.0133533 -0.282777 -0.88033 -0.0294507 -0.0714559 
-0.690407 -0.00379636 -0.285437 -0.686688 0.00438722 -0.285438 -0.734061 0.0011684 -0.303733 
-0.648568 -0.00485621 -0.267098 -0.727118 0.0432417 -0.408615 -0.757907 0.029446 -0.311123 
-0.606526 0.0187171 -0.259864 -0.608854 0.0621165 -0.260507 -0.608004 0.0193357 -0.248013 
-0.615049 0.0542731 -0.250945 -0.939632 0.16724 -0.331002 -0.89499 0.292026 -0.561526 
-0.707827 -0.00127464 -0.290706 -0.746285 0.0818071 -0.312375 -0.699741 0.0186865 -0.296822 
-0.748852 0.0515219 -0.310512 -0.734973 -0.103689 -0.238174 -0.700061 0.00917664 -0.290363 
-0.651454 -0.0342926 -0.272584 -0.842467 -0.0231154 -0.493706 -0.708168 -0.035133 -0.300601 
-0.695175 0.0155665 -0.289118 -0.610052 -0.0372067 -0.253363 -1.02161 0.166315 -0.445916 
-0.643094 -0.0165295 -0.280124 -0.601392 0.0382931 -0.269236 -0.576142 -0.0424591 -0.361628 
-0.581922 0.0426972 -0.232421 -0.596459 0.0955715 -0.248121 -0.982782 0.130554 -0.608191 
-0.691237 -0.0571146 -0.290554 -0.805306 0.00941371 -0.156719 -0.730774 0.305352 -0.364048 
-0.861224 -0.142779 -0.339015 -0.679319 -0.127357 -0.268692 -1.07915 -0.0803746 -0.632709 
-0.585974 0.0204786 -0.242183 -0.573199 -0.0593032 -0.236313 -1.10774 -0.0231968 -0.513125 
-0.629458 -0.0237115 -0.208286 -0.595871 -0.0313722 -0.255157 -0.56723 -0.0313351 -0.238754 
-0.684191 0.106665 -0.267404 -0.735087 -0.105065 -0.333391 -0.872159 -0.00469628 -0.416168 
-0.51758 -0.00678258 -0.217208 -0.570013 -0.143156 -0.231661 -0.610391 -0.103324 -0.232905 
-0.629493 0.0337835 -0.240906 -0.436401 -0.0408426 -0.185279 -0.59913 0.0498759 -0.256024 
-0.718 -0.064296 -0.283515 -0.591355 -0.0631163 -0.24892 -0.575989 -0.0590104 -0.241942 
-0.54312 -0.0779447 -0.278811 -0.689825 -0.12369 -0.286072 -0.621118 0.0547706 -0.250883 
-0.711499 -0.0452483 -0.305752 -0.76739 -0.0727334 -0.333986 -0.750235 0.128789 -0.256251 
-0.842462 -0.0146975 -0.382984 -0.554291 -0.0549164 -0.220613 -0.59212 -0.0149422 -0.229476 
-0.545668 0.0322168 -0.233367 -0.639219 -0.0430424 -0.135507 -0.518742 -0.0344864 -0.217957 
-0.568037 0.0792703 -0.24591 -0.618301 0.00131711 -0.160473 -0.647854 -0.00920127 -0.204161 
-0.74218 0.03512 -0.276449 -0.729673 0.105932 -0.2953 -0.659614 -0.00191494 -0.290363 
-0.735932 0.215765 -0.275249 -0.904989 -0.2563 -0.216136 -0.585912 0.0919621 -0.230846 
-0.894514 -0.113572 -0.389569 -0.742853 -0.04547 -0.319336 -0.730029 -0.0072638 -0.30557 
-0.580416 0.0711374 -0.213949 -0.659918 0.0949555 -0.297353 -0.684519 -0.071657 -0.270997 
-0.712114 -0.0844648 -0.29487 -0.947523 0.0319526 -0.303977 -0.85881 -0.155732 -0.371955 
-0.689297 -0.0190259 -0.264979 -0.645323 -0.0370765 -0.268736 -1.09253 -0.275826 -0.269437 
-0.874535 -0.0669522 -0.191511 -0.653197 0.0709189 -0.236493 -0.69238 -0.0952421 -0.30128 
-0.731583 -0.0392103 -0.294828 -0.925457 0.000283645 -0.739133 -0.805838 0.0231037 -0.758383 
-0.816486 0.0709531 -0.238341 -0.701697 -0.144234 -0.294887 -0.726863 0.215376 -0.232204 
-0.469504 0.0569372 -0.202425 -0.563056 -0.0978653 -0.284707 -0.493515 0.0547587 -0.197047 
-0.676178 0.0715773 -0.276265 -0.556811 0.0946575 -0.0761227 -0.704511 -0.0696942 -0.0448729 
-0.863763 0.134388 -0.0640857 -0.780912 0.334578 -0.480659 -0.843633 -0.223266 -0.608567 
-0.981728 -0.317392 -0.849145 -0.543077 -0.128121 -0.233593 -0.55388 -0.084071 -0.200811 
-0.621341 -0.159375 -0.446074 -0.683242 0.306701 -0.23894 -0.618334 -0.361692 -0.171063 
-0.655083 0.191666 -0.297514 -0.499372 -0.0514009 -0.209516 -0.769796 -0.103925 -0.673482 
-0.692628 0.0521041 -0.557345 -0.664024 0.132188 -0.542516 -0.400417 0.0586577 -0.165324 