# vtk DataFile Version 4.0
Generated by LIGGGHTS
ASCII
DATASET POLYDATA
POINTS 353 float
-0.22171 0.075137 -0.173127 -0.182472 0.0243994 -0.180749 -0.172749 0.00824412 -0.178555 
-0.159187 -0.0014533 -0.171985 -0.159018 -0.0256102 -0.170862 -0.153519 -0.0230331 -0.169031 
-0.145478 -0.00536547 -0.167311 -0.15448 0.0262764 -0.168727 -0.14552 -0.00894124 -0.167011 
-0.138835 -0.00477753 -0.164365 -0.142027 -0.0236017 -0.163007 -0.140553 -0.0184413 -0.164216 
-0.143464 -0.0085352 -0.16231 -0.135036 -0.00688454 -0.161717 -0.128282 -0.00618504 -0.16001 
-0.135785 -0.00289682 -0.16326 -0.133506 -0.000143757 -0.162362 -0.133602 0.014113 -0.160683 
-0.144583 0.0253278 -0.16376 -0.125181 -0.000918732 -0.157749 -0.125804 0.00450786 -0.158988 
-0.151893 -0.0140534 -0.153925 -0.130088 -0.00153217 -0.16052 -0.121341 0.00449776 -0.15607 
-0.114092 0.00529863 -0.154115 -0.110773 0.00527168 -0.152293 -0.116352 0.0101835 -0.153744 
-0.1122 0.00802481 -0.152724 -0.1204 0.0143676 -0.155051 -0.119855 0.0182989 -0.155545 
-0.142335 0.0591263 -0.153756 -0.123205 -0.00591234 -0.156072 -0.105929 -0.00577913 -0.14945 
-0.111786 -0.00154124 -0.152078 -0.108286 -0.00339916 -0.151661 -0.103721 -0.00229737 -0.149574 
-0.107225 -5.82509e-05 -0.151008 -0.133882 0.00259378 -0.151057 -0.122727 0.0044082 -0.149892 
-0.119899 0.00798834 -0.149882 -0.111756 0.0151828 -0.151338 -0.116593 0.0206922 -0.152727 
-0.119534 -0.0483703 -0.148678 -0.105001 -0.0223751 -0.148242 -0.101416 -0.0040203 -0.148588 
-0.098337 -0.0045654 -0.145951 -0.123188 -2.50376e-05 -0.149639 -0.108595 -0.00187619 -0.148349 
-0.0999019 7.35349e-05 -0.147061 -0.0950455 -0.000202611 -0.146055 -0.0977633 0.00462648 -0.147195 
-0.108302 0.00983363 -0.150021 -0.101577 0.0114977 -0.148415 -0.112463 0.0477318 -0.146059 
-0.113586 -0.0505012 -0.145602 -0.109698 0.00396776 -0.14818 -0.0873996 0.00277577 -0.142827 
-0.0922186 0.00355408 -0.14371 -0.0927978 0.00927102 -0.143815 -0.0868077 0.0120933 -0.142153 
-0.110582 0.0137933 -0.145634 -0.103426 0.0401877 -0.144538 -0.100968 0.0430468 -0.141933 
-0.0854012 -0.0247254 -0.139131 -0.0866143 -0.0129288 -0.140967 -0.0773585 -0.00580575 -0.13854 
-0.0840261 0.00181851 -0.140338 -0.105446 0.00324528 -0.14423 -0.0813107 0.0111397 -0.139882 
-0.0950875 -0.0585289 -0.135123 -0.0937761 -0.0437717 -0.137868 -0.0842133 -0.033256 -0.137068 
-0.0785185 -0.0296877 -0.135358 -0.0699721 -0.0115777 -0.135128 -0.0760742 -0.0052678 -0.134444 
-0.0714248 -0.00175289 -0.135091 -0.0910018 0.00526878 -0.140288 -0.08101 0.0126779 -0.137272 
-0.0704174 0.0144242 -0.135051 -0.0727655 -0.0410973 -0.131652 -0.0670264 -0.0198869 -0.133099 
-0.0782331 -0.0202789 -0.133045 -0.0607568 0.000547147 -0.131636 -0.0876567 -0.00172266 -0.13888 
-0.0841422 0.00275636 -0.135987 -0.0668095 0.0054517 -0.13408 -0.0619005 0.00622547 -0.131834 
-0.0630843 0.0209349 -0.131407 -0.0678935 0.0260387 -0.131552 -0.0646053 0.0282177 -0.130774 
-0.0938066 0.0315399 -0.135001 -0.0662065 -0.0373536 -0.129868 -0.0625764 -0.0283152 -0.130105 
-0.0595081 -0.0108204 -0.130765 -0.0794755 -0.00532814 -0.133702 -0.0556946 -0.00784348 -0.128199 
-0.0765488 0.000645053 -0.13107 -0.0611008 -0.0041368 -0.129672 -0.0994934 0.00113467 -0.132863 
-0.0942876 -0.000115731 -0.134285 -0.0580325 0.00161238 -0.130511 -0.0639797 0.0167832 -0.13025 
-0.059956 0.0208333 -0.128997 -0.0629564 0.0314974 -0.129394 -0.0530177 -0.00244301 -0.127268 
-0.0668188 0.00884465 -0.129386 -0.0640672 0.00553487 -0.128473 -0.0606204 0.0156777 -0.127263 
-0.0819124 -0.00645818 -0.130412 -0.0519582 0.00260283 -0.126782 -0.0668977 -0.00403558 -0.12919 
-0.0512344 -0.0120372 -0.127275 -0.0586905 -0.000257562 -0.127095 -0.0807607 0.00343108 -0.128303 
-0.056651 0.0152403 -0.125985 -0.0538308 -0.0230283 -0.125614 -0.0591088 -0.0454114 -0.123881 
-0.0250933 5.52728e-05 0.0418189 -0.0318304 -0.0245036 0.0453271 -0.00209743 -0.0197497 0.049967 
-0.00797106 -0.0174946 0.0477845 -0.0828324 -0.000117547 -0.124867 -0.0135917 0.0274385 0.0500036 
-0.00205387 -0.0284209 0.0463279 -0.00426265 -0.00806252 0.0482813 -0.0054599 -0.0346412 0.0454716 
-0.029449 0.0175582 0.0486521 -0.0153561 0.00561382 0.0484456 -0.032644 -0.0063197 0.051157 
-0.0131172 0.0174599 0.0432628 -0.0610237 -0.0323306 -0.121 -0.09875 -0.0311175 -0.122472 
-0.0465471 -0.0261462 -0.119797 -0.060284 -0.0170018 -0.119348 -0.0506604 -0.0160028 -0.120275 
-0.0442905 -0.017988 -0.123327 -0.0492904 -0.0127138 -0.123904 -0.0383502 -0.0114104 -0.119923 
-0.0797773 -0.0107639 -0.123785 -0.0354724 -0.00794404 -0.11965 -0.0535611 -0.00421631 -0.12371 
-0.0450739 -0.00489924 -0.124532 -0.0503366 -0.00119927 -0.123133 -0.0385948 0.00190126 -0.116693 
-0.0458263 0.00782444 -0.123957 -0.0599182 0.0149621 -0.121967 -0.0438988 0.0123967 -0.122372 
-0.086425 0.0130474 -0.123974 -0.0790505 0.0145385 -0.124488 -0.0419297 0.0295918 -0.121194 
-0.0781288 0.0376313 -0.124181 -0.035582 -0.0416831 -0.116154 -0.0295802 -0.0283991 -0.114199 
-0.036188 -0.0167779 -0.119205 -0.0333428 -0.0164982 -0.115812 -0.0693662 -0.0103779 -0.121825 
-0.044278 -0.0065892 -0.120951 -0.032642 -0.0107805 -0.119487 -0.0775497 -0.0051996 -0.122313 
-0.0571836 0.0011603 -0.118406 -0.0259735 -0.000619631 -0.116532 -0.0744044 0.00562879 -0.118071 
-0.0690035 0.00398585 -0.119337 -0.0316077 0.0085574 -0.117973 -0.0828072 0.0174513 -0.123606 
-0.0332229 0.0127711 -0.119482 -0.03783 0.0149232 -0.120257 -0.05086 0.0204088 -0.114488 
-0.0388385 0.0266638 -0.118669 -0.0300792 0.0260888 -0.115686 -0.0441423 0.0298349 -0.114001 
-0.0571639 -0.0285632 -0.111283 -0.0281188 -0.0227704 -0.113193 -0.0505682 -0.0218136 -0.113967 
-0.0240305 -0.0184043 -0.1106 -0.0436861 -0.01253 -0.116498 -0.0362946 -0.0142299 -0.112524 
-0.0476056 -0.0120825 -0.114274 -0.037851 -0.0110164 -0.110081 -0.0261368 -0.016076 -0.110474 
-0.066324 -0.00589665 -0.116167 -0.0222673 -0.00272944 -0.113402 -0.049851 -0.00499666 -0.113952 
-0.0619348 0.00105383 -0.118316 -0.0286708 0.00118707 -0.117376 -0.0354728 0.00582077 -0.117204 
-0.0446634 0.0115824 -0.11399 -0.0285431 0.00531949 -0.111817 -0.0357448 0.0163692 -0.114798 
-0.0415701 0.0166545 -0.117507 -0.0285358 0.0191832 -0.111086 -0.0424811 0.0252657 -0.110914 
-0.0505668 -0.0108571 -0.110948 -0.0336025 -0.0133264 -0.117666 -0.0575044 -0.0090704 -0.113116 
-0.0139878 -0.0113793 -0.108934 -0.0542018 -0.0025258 -0.112038 -0.0323191 -0.00886204 -0.109384 
-0.0223439 0.00265217 -0.114691 -0.021166 0.0105146 -0.111206 -0.0485676 0.0119803 -0.115148 
-0.0208062 -0.0528806 -0.107016 -0.0283281 -0.0221774 -0.104821 -0.0183014 -0.0173979 -0.107221 
-0.0173824 -0.0136176 -0.111289 -0.0471772 -0.00690607 -0.108218 -0.047858 -0.00245613 -0.108652 
-0.0297362 -0.00375506 -0.109492 -0.0106853 0.00137419 -0.103166 -0.0135223 0.0117203 -0.104699 
-0.0349868 0.019323 -0.106912 -0.0158521 0.0251749 -0.10798 -0.0135737 0.0261011 -0.102863 
-0.00449755 0.0294766 -0.104915 -0.0416231 0.00804547 -0.100596 -0.0128779 0.0155734 -0.101697 
-0.0228638 0.0218917 -0.105681 -0.00660968 0.0296201 -0.101536 -0.0183615 0.0467949 -0.100435 
-0.0150045 -0.0318962 -0.10707 -0.0342709 -0.0266248 -0.117264 -0.0177183 -0.0243301 -0.109381 
-0.0190276 0.0150725 -0.112083 -0.0186146 0.0298448 -0.108708 -0.0147869 0.0163386 -0.110057 
-0.0146863 0.0303344 -0.108025 -0.00449917 -0.0334578 -0.102432 -0.00685886 -0.0247891 -0.1061 
-0.0126988 -0.00665925 -0.110535 -0.0104339 -0.0112253 -0.107553 -0.0147657 0.0154215 -0.107377 
-0.0241178 0.0300767 -0.106412 -0.0142921 -0.0256298 -0.102303 -0.0116971 -0.00845001 -0.103968 
-0.0136619 -0.00711923 -0.0991371 -0.0113842 0.0330078 -0.0987425 -0.0141421 -0.0289115 -0.0963934 
-0.0275287 0.0316192 -0.0962399 -0.0215223 -0.00790873 -0.0934504 -0.0140583 -0.00457604 -0.0935313 
-0.0198385 0.0337207 -0.093315 -0.0125397 0.000705716 -0.0903558 -0.00624641 0.0129916 -0.088098 
-0.00523715 -0.00647974 -0.0854517 -0.0110222 0.021925 -0.0842093 -0.0186146 -0.0271402 -0.0829975 
-0.0256746 -0.0217519 -0.0810766 -0.0245223 0.0145985 -0.0804721 -0.00913613 -0.0312941 -0.0791749 
-0.0183381 0.00273344 -0.0768933 -0.0334121 0.00368684 -0.0797749 -0.011765 0.00818954 -0.0785036 
-0.000908632 -0.0201376 -0.0699757 -0.00778825 0.00202854 -0.0717926 -0.004822 0.0167274 -0.0691342 
-0.0312596 -0.0282318 -0.0654965 -0.00133703 -0.00658453 -0.0682505 -0.00508252 -0.0028679 -0.0673485 
-0.0114835 0.00360093 -0.0664141 -0.00736955 0.00915874 -0.065963 -0.03335 -0.0101411 -0.0618995 
-0.0132609 0.017575 -0.0644321 -0.0230186 0.023228 -0.0612184 -0.0181876 -0.028381 -0.0553347 
-0.0342247 -0.0119118 -0.0549025 -0.0327461 -0.00810316 -0.056881 -0.0202693 -0.00943017 -0.0545187 
-0.0228461 0.00943572 -0.0570233 -0.00273627 0.0326024 -0.0563756 -0.0290573 0.0260911 -0.0510715 
-0.0270427 -0.0136491 -0.0495063 -0.0244054 0.0234551 -0.0489037 -0.00252809 0.0307765 -0.0472634 
-0.0338399 -0.0287184 -0.044723 -0.0084722 -0.00462009 -0.0446798 -0.0288682 0.0130299 -0.0450708 
-0.000691472 0.0332631 -0.0450897 -0.0252685 -0.0119457 -0.0389261 -0.0309256 0.00918438 -0.0407191 
-0.0309119 -0.0207084 -0.0366192 -0.0272645 0.0231035 -0.0368178 -0.0304536 -0.0123493 -0.0346552 
-0.0340111 0.0266228 -0.0317832 -0.0171117 -0.02331 -0.0299933 -0.0203439 -0.0193455 -0.0275901 
-0.014458 -0.0138423 -0.0278924 -0.00968967 -0.00588877 -0.0276026 -0.0209658 0.00969496 -0.0299942 
-0.00730513 0.0257586 -0.0281412 -0.00413281 -0.00792779 -0.0252279 -0.0152744 0.0211746 -0.0256435 
-0.0170652 -0.0214262 -0.02045 -0.0124469 0.0108555 -0.0201348 -0.0158837 -0.0171309 -0.0187417 
-0.0255762 0.00585265 -0.0198315 -0.0231605 0.0109416 -0.0176395 -0.0306741 -0.0048619 -0.0137091 
-0.0148123 0.0147393 -0.0125197 -0.0109595 0.0300204 -0.0136501 -0.0265082 0.034934 -0.0140023 
-0.0349344 -0.00127292 -0.010442 -0.0095853 0.0256603 -0.00905754 -0.00757771 0.0326856 -0.0118223 
-0.0242978 0.00020127 -0.0085285 -0.0341543 -0.0265255 -0.00197716 -0.0279163 0.0200822 -0.00459014 
-0.0165238 0.0194762 -0.00177461 -0.0196325 0.0295097 -0.00413525 -0.0196571 -0.0325483 -0.000592693 
-0.0108823 -0.0240914 0.00219163 -0.0208036 0.00162734 -0.000420216 -0.00343388 0.0316676 0.000113727 
-0.0120408 -0.0289279 0.00541405 -0.0303622 -0.0214325 0.00590805 -0.0188893 -0.0164448 0.0049362 
-0.00434932 -0.0129336 0.00398594 -0.00296015 0.00664907 0.00417189 -0.027048 -0.0348853 0.00932454 
-0.0141191 -0.0138017 0.00787919 -0.0252225 -0.00395457 0.00819496 -0.0184752 -0.0330418 0.013762 
-0.00418171 -0.00447311 0.0127573 -0.0250889 0.00553727 0.0118912 -0.00344499 -0.0220199 0.0150587 
-0.00876558 -0.00149609 0.0154751 -0.0346461 0.030431 0.01766 -0.0256427 -0.020268 0.017928 
-0.0241229 -0.00156433 0.0183556 -0.00515441 0.000607433 0.0207421 -0.0204765 0.00703928 0.0185723 
-0.0293092 0.0266251 0.0186679 -0.0318304 -0.0270523 0.0235725 -0.0118162 -0.0172965 0.0252694 
-0.0107355 -0.0111371 0.0253911 -0.0259008 0.01415 0.0220495 -0.0288367 0.021507 0.0238839 
-0.0208274 -0.00751444 0.0277439 -0.0344795 0.0306845 0.027146 -0.00974267 0.00154746 0.0298841 
-0.0310028 0.00427373 0.0309191 -0.0224693 0.00786627 0.0293867 -0.026015 0.0234799 0.0294512 
-0.00482279 0.0319284 0.0326775 -0.0258414 -0.0246135 0.0366587 -0.0292124 -0.00857811 0.0344778 
-0.0120659 -0.000928847 0.035384 -0.00423369 0.00513081 0.035308 -0.0282123 0.0119421 0.0335431 
-0.00304149 0.01634 0.0337348 -0.0145727 0.0196597 0.0338361 -0.0230867 -0.0218823 0.04007 
-0.000558622 -0.0225112 0.0375008 -0.00209585 -0.0253397 0.0424298 
VERTICES 353 706
1 0 
1 1 
1 2 
1 3 
1 4 
1 5 
1 6 
1 7 
1 8 
1 9 
1 10 
1 11 
1 12 
1 13 
1 14 
1 15 
1 16 
1 17 
1 18 
1 19 
1 20 
1 21 
1 22 
1 23 
1 24 
1 25 
1 26 
1 27 
1 28 
1 29 
1 30 
1 31 
1 32 
1 33 
1 34 
1 35 
1 36 
1 37 
1 38 
1 39 
1 40 
1 41 
1 42 
1 43 
1 44 
1 45 
1 46 
1 47 
1 48 
1 49 
1 50 
1 51 
1 52 
1 53 
1 54 
1 55 
1 56 
1 57 
1 58 
1 59 
1 60 
1 61 
1 62 
1 63 
1 64 
1 65 
1 66 
1 67 
1 68 
1 69 
1 70 
1 71 
1 72 
1 73 
1 74 
1 75 
1 76 
1 77 
1 78 
1 79 
1 80 
1 81 
1 82 
1 83 
1 84 
1 85 
1 86 
1 87 
1 88 
1 89 
1 90 
1 91 
1 92 
1 93 
1 94 
1 95 
1 96 
1 97 
1 98 
1 99 
1 100 
1 101 
1 102 
1 103 
1 104 
1 105 
1 106 
1 107 
1 108 
1 109 
1 110 
1 111 
1 112 
1 113 
1 114 
1 115 
1 116 
1 117 
1 118 
1 119 
1 120 
1 121 
1 122 
1 123 
1 124 
1 125 
1 126 
1 127 
1 128 
1 129 
1 130 
1 131 
1 132 
1 133 
1 134 
1 135 
1 136 
1 137 
1 138 
1 139 
1 140 
1 141 
1 142 
1 143 
1 144 
1 145 
1 146 
1 147 
1 148 
1 149 
1 150 
1 151 
1 152 
1 153 
1 154 
1 155 
1 156 
1 157 
1 158 
1 159 
1 160 
1 161 
1 162 
1 163 
1 164 
1 165 
1 166 
1 167 
1 168 
1 169 
1 170 
1 171 
1 172 
1 173 
1 174 
1 175 
1 176 
1 177 
1 178 
1 179 
1 180 
1 181 
1 182 
1 183 
1 184 
1 185 
1 186 
1 187 
1 188 
1 189 
1 190 
1 191 
1 192 
1 193 
1 194 
1 195 
1 196 
1 197 
1 198 
1 199 
1 200 
1 201 
1 202 
1 203 
1 204 
1 205 
1 206 
1 207 
1 208 
1 209 
1 210 
1 211 
1 212 
1 213 
1 214 
1 215 
1 216 
1 217 
1 218 
1 219 
1 220 
1 221 
1 222 
1 223 
1 224 
1 225 
1 226 
1 227 
1 228 
1 229 
1 230 
1 231 
1 232 
1 233 
1 234 
1 235 
1 236 
1 237 
1 238 
1 239 
1 240 
1 241 
1 242 
1 243 
1 244 
1 245 
1 246 
1 247 
1 248 
1 249 
1 250 
1 251 
1 252 
1 253 
1 254 
1 255 
1 256 
1 257 
1 258 
1 259 
1 260 
1 261 
1 262 
1 263 
1 264 
1 265 
1 266 
1 267 
1 268 
1 269 
1 270 
1 271 
1 272 
1 273 
1 274 
1 275 
1 276 
1 277 
1 278 
1 279 
1 280 
1 281 
1 282 
1 283 
1 284 
1 285 
1 286 
1 287 
1 288 
1 289 
1 290 
1 291 
1 292 
1 293 
1 294 
1 295 
1 296 
1 297 
1 298 
1 299 
1 300 
1 301 
1 302 
1 303 
1 304 
1 305 
1 306 
1 307 
1 308 
1 309 
1 310 
1 311 
1 312 
1 313 
1 314 
1 315 
1 316 
1 317 
1 318 
1 319 
1 320 
1 321 
1 322 
1 323 
1 324 
1 325 
1 326 
1 327 
1 328 
1 329 
1 330 
1 331 
1 332 
1 333 
1 334 
1 335 
1 336 
1 337 
1 338 
1 339 
1 340 
1 341 
1 342 
1 343 
1 344 
1 345 
1 346 
1 347 
1 348 
1 349 
1 350 
1 351 
1 352 

POINT_DATA 353
FIELD FieldData 7
id 1 353 int
24 56 9 16 30 34 10 31 6 
23 3 32 19 33 13 7 22 1 
26 5 21 2 60 28 42 46 48 
87 40 57 68 54 15 29 50 18 
45 11 36 27 14 41 108 58 69 
52 38 88 51 12 49 101 43 8 
99 53 35 17 65 73 79 44 59 
67 4 47 64 85 55 20 92 76 
104 94 109 39 70 122 82 81 74 
62 121 83 72 71 150 37 66 113 
93 110 147 25 96 78 156 158 63 
84 97 95 154 124 128 118 166 90 
100 105 174 144 89 61 187 120 86 
345 347 343 351 142 353 350 349 346 
342 341 348 352 163 126 167 132 177 
175 141 146 125 117 136 123 77 198 
80 98 127 116 91 157 130 119 179 
193 169 111 153 106 112 148 160 133 
162 102 75 131 164 182 138 207 200 
137 191 129 149 170 192 165 186 171 
114 184 176 103 172 155 183 115 178 
161 196 181 135 212 134 195 145 189 
197 199 140 107 188 202 168 139 143 
152 190 203 185 151 210 173 159 194 
180 213 201 211 204 205 208 209 206 
222 224 218 220 226 223 214 217 219 
221 215 225 216 227 235 232 229 236 
239 234 230 228 231 237 247 233 238 
251 249 241 245 248 250 242 240 252 
246 243 262 265 258 259 244 256 257 
253 260 263 255 264 254 261 272 271 
270 269 268 274 278 275 276 277 266 
273 286 267 289 288 279 287 284 285 
290 280 282 281 297 283 302 300 294 
298 299 295 292 293 291 313 315 314 
296 301 309 312 308 310 306 311 303 
304 327 307 305 326 321 324 328 317 
318 322 319 320 325 334 335 316 323 
332 337 333 331 339 340 330 329 338 
336 344 
type 1 353 int
1 1 1 1 1 1 1 1 1 
1 1 1 1 1 1 1 1 1 
1 1 1 1 1 1 1 1 1 
1 1 1 1 1 1 1 1 1 
1 1 1 1 1 1 1 1 1 
1 1 1 1 1 1 1 1 1 
1 1 1 1 1 1 1 1 1 
1 1 1 1 1 1 1 1 1 
1 1 1 1 1 1 1 1 1 
1 1 1 1 1 1 1 1 1 
1 1 1 1 1 1 1 1 1 
1 1 1 1 1 1 1 1 1 
1 1 1 1 1 1 1 1 1 
1 1 1 1 1 1 1 1 1 
1 1 1 1 1 1 1 1 1 
1 1 1 1 1 1 1 1 1 
1 1 1 1 1 1 1 1 1 
1 1 1 1 1 1 1 1 1 
1 1 1 1 1 1 1 1 1 
1 1 1 1 1 1 1 1 1 
1 1 1 1 1 1 1 1 1 
1 1 1 1 1 1 1 1 1 
1 1 1 1 1 1 1 1 1 
1 1 1 1 1 1 1 1 1 
1 1 1 1 1 1 1 1 1 
1 1 1 1 1 1 1 1 1 
1 1 1 1 1 1 1 1 1 
1 1 1 1 1 1 1 1 1 
1 1 1 1 1 1 1 1 1 
1 1 1 1 1 1 1 1 1 
1 1 1 1 1 1 1 1 1 
1 1 1 1 1 1 1 1 1 
1 1 1 1 1 1 1 1 1 
1 1 1 1 1 1 1 1 1 
1 1 1 1 1 1 1 1 1 
1 1 1 1 1 1 1 1 1 
1 1 1 1 1 1 1 1 1 
1 1 1 1 1 1 1 1 1 
1 1 1 1 1 1 1 1 1 
1 1 
i 3 353 int
0 0 0 0 0 0 0 0 0 
0 0 0 0 0 0 0 0 0 
0 0 0 0 0 0 0 0 0 
0 0 0 0 0 0 0 0 0 
0 0 0 0 0 0 0 0 0 
0 0 0 0 0 0 0 0 0 
0 0 0 0 0 0 0 0 0 
0 0 0 0 0 0 0 0 0 
0 0 0 0 0 0 0 0 0 
0 0 0 0 0 0 0 0 0 
0 0 0 0 0 0 0 0 0 
0 0 0 0 0 0 0 0 0 
0 0 0 0 0 0 0 0 0 
0 0 0 0 0 0 0 0 0 
0 0 0 0 0 0 0 0 0 
0 0 0 0 0 0 0 0 0 
0 0 0 0 0 0 0 0 0 
0 0 0 0 0 0 0 0 0 
0 0 0 0 0 0 0 0 0 
0 0 0 0 0 0 0 0 0 
0 0 0 0 0 0 0 0 0 
0 0 0 0 0 0 0 0 0 
0 0 0 0 0 0 0 0 0 
0 0 0 0 0 0 0 0 0 
0 0 0 0 0 0 0 0 0 
0 0 0 0 0 0 0 0 0 
0 0 0 0 0 0 0 0 0 
0 0 0 0 0 0 0 0 0 
0 0 0 0 0 0 0 0 0 
0 0 0 0 0 0 0 0 0 
0 0 0 0 0 0 0 0 0 
0 0 0 0 0 0 0 0 0 
0 0 0 0 0 0 0 0 0 
0 0 0 0 0 0 0 0 0 
0 0 0 0 0 0 0 0 0 
0 0 0 0 0 0 0 0 0 
0 0 0 0 0 0 0 0 0 
0 0 0 0 0 0 0 0 0 
0 0 0 0 0 0 0 0 0 
0 0 0 0 0 0 0 0 0 
0 0 0 0 0 0 0 0 0 
0 0 0 0 0 0 0 0 0 
0 0 0 0 0 0 0 0 0 
0 0 0 0 0 0 0 0 0 
0 0 0 0 0 0 0 0 0 
0 0 0 0 0 0 0 0 0 
0 0 0 0 0 0 0 0 0 
0 0 0 0 0 0 0 0 0 
0 0 0 0 0 0 0 0 0 
0 0 0 0 0 0 0 0 0 
0 0 0 0 0 0 0 0 0 
0 0 0 0 0 0 0 0 0 
0 0 0 0 0 0 0 0 0 
0 0 0 0 0 0 0 0 0 
0 0 0 0 0 0 0 0 0 
0 0 0 0 0 0 0 0 0 
0 0 0 0 0 0 0 0 0 
0 0 0 0 0 0 0 0 0 
0 0 0 0 0 0 0 0 0 
0 0 0 0 0 0 0 0 0 
0 0 0 0 0 0 0 0 0 
0 0 0 0 0 0 0 0 0 
0 0 0 0 0 0 0 0 0 
0 0 0 0 0 0 0 0 0 
0 0 0 0 0 0 0 0 0 
0 0 0 0 0 0 0 0 0 
0 0 0 0 0 0 0 0 0 
0 0 0 0 0 0 0 0 0 
0 0 0 0 0 0 0 0 0 
0 0 0 0 0 0 0 0 0 
0 0 0 0 0 0 0 0 0 
0 0 0 0 0 0 0 0 0 
0 0 0 0 0 0 0 0 0 
0 0 0 0 0 0 0 0 0 
0 0 0 0 0 0 0 0 0 
0 0 0 0 0 0 0 0 0 
0 0 0 0 0 0 0 0 0 
0 0 0 0 0 0 0 0 0 
0 0 0 0 0 0 0 0 0 
0 0 0 0 0 0 0 0 0 
0 0 0 0 0 0 0 0 0 
0 0 0 0 0 0 0 0 0 
0 0 0 0 0 0 0 0 0 
0 0 0 0 0 0 0 0 0 
0 0 0 0 0 0 0 0 0 
0 0 0 0 0 0 0 0 0 
0 0 0 0 0 0 0 0 0 
0 0 0 0 0 0 0 0 0 
0 0 0 0 0 0 0 0 0 
0 0 0 0 0 0 0 0 0 
0 0 0 0 0 0 0 0 0 
0 0 0 0 0 0 0 0 0 
0 0 0 0 0 0 0 0 0 
0 0 0 0 0 0 0 0 0 
0 0 0 0 0 0 0 0 0 
0 0 0 0 0 0 0 0 0 
0 0 0 0 0 0 0 0 0 
0 0 0 0 0 0 0 0 0 
0 0 0 0 0 0 0 0 0 
0 0 0 0 0 0 0 0 0 
0 0 0 0 0 0 0 0 0 
0 0 0 0 0 0 0 0 0 
0 0 0 0 0 0 0 0 0 
0 0 0 0 0 0 0 0 0 
0 0 0 0 0 0 0 0 0 
0 0 0 0 0 0 0 0 0 
0 0 0 0 0 0 0 0 0 
0 0 0 0 0 0 0 0 0 
0 0 0 0 0 0 0 0 0 
0 0 0 0 0 0 0 0 0 
0 0 0 0 0 0 0 0 0 
0 0 0 0 0 0 0 0 0 
0 0 0 0 0 0 0 0 0 
0 0 0 0 0 0 0 0 0 
0 0 0 0 0 0 0 0 0 
0 0 0 0 0 0 0 0 0 
0 0 0 0 0 0 0 0 0 
0 0 0 0 0 0 
v 3 353 double
-1.43669 0.306154 -0.258981 -1.32994 -0.0938658 -0.579272 -1.13747 -0.119094 -0.494981 
-1.04143 0.00179511 -0.42853 -0.954924 -0.023275 -0.392777 -1.09328 -0.29226 -0.412963 
-0.656513 -0.0790802 -0.26667 -1.01825 0.199872 -0.372918 -0.796483 -0.139671 -0.333886 
-0.718271 -0.0148429 -0.333813 -0.949737 0.137561 -0.413728 -0.944684 0.0482329 -0.395747 
-1.10455 -0.0972918 -0.543835 -0.849532 -0.131601 -0.466417 -0.654298 0.0541682 -0.287934 
-0.769651 0.0344833 -0.331213 -0.936479 -0.021735 -0.404665 -0.849598 0.0655834 -0.325899 
-0.997912 0.214727 -0.351824 -0.844094 0.11108 -0.362644 -0.84054 0.0685657 -0.340288 
-1.03755 -0.225566 -0.312277 -0.97997 -0.0569937 -0.238258 -0.792026 0.177592 -0.307434 
-0.643767 0.0155275 -0.27333 -0.731614 0.0605799 0.00796216 -0.727678 0.177525 -0.198998 
-0.63628 -0.124512 -0.27297 -0.741838 0.0514267 -0.310023 -0.75609 0.0536958 -0.307426 
-1.04236 0.175865 -0.342325 -0.988567 0.0656526 -0.745632 -0.610383 0.0161177 -0.209361 
-0.5735 -0.0305701 -0.216305 -0.583893 -0.0337505 -0.212393 -0.647983 0.0822833 -0.353055 
-0.652986 0.0655231 -0.234909 -0.637196 0.122583 -0.188608 -1.11629 -0.00464861 -0.173399 
-1.09976 0.114049 -0.164187 -0.712669 0.0512676 -0.297645 -0.839748 0.0328424 -0.345451 
-0.996936 -0.216421 -0.338031 -0.965852 -0.304657 -0.321738 -0.667402 0.0405961 -0.123773 
-0.685059 -0.0480296 -0.0469189 -1.13035 0.0573879 -0.44589 -1.00769 -0.0314902 -0.220425 
-0.658475 0.0118227 -0.236637 -0.497511 -0.0714439 -0.238382 -0.717291 -0.056803 -0.305123 
-0.916952 0.109034 -0.637033 -0.679597 0.0295815 -0.286207 -0.752907 0.102137 -0.271059 
-0.909289 -0.16528 -0.429798 -0.789769 -0.0534328 0.371309 -0.658836 -0.0195275 -0.276628 
-0.659311 -0.175315 -0.261568 -0.510331 -0.0779851 -0.219724 -0.590037 -0.125782 -0.260929 
-0.924896 -0.112541 -0.630407 -0.673611 -0.00984352 -0.280266 -0.697499 0.218145 -0.328876 
-0.749529 -0.167028 -0.290651 -0.747181 -0.0840444 -0.308513 -0.607996 -0.0380685 -0.242484 
-0.600584 -0.037556 -0.272574 -0.708345 -0.0374961 -0.709178 -0.674664 0.00346109 -0.163397 
-0.689767 -0.0169993 -0.270947 -0.82263 -0.0369808 -0.391561 -0.708722 -0.159802 -0.261971 
-0.706084 -0.176183 -0.260726 -0.556071 -0.0905153 -0.22938 -0.707783 0.115205 -0.0502859 
-0.641425 -0.151975 -0.271682 -0.813627 -0.0807273 -0.221977 -0.967222 0.0163124 0.00991601 
-0.497431 -0.0365017 -0.213549 -0.591159 -0.39834 -0.240661 -0.586366 -0.0618614 -0.239981 
-0.768264 -0.287594 -0.411035 -0.591895 0.205565 -0.243712 -1.02762 -0.418202 -0.643896 
-0.892522 0.0581849 -0.657028 -0.63537 0.164958 -0.26629 -0.547857 -0.0824349 -0.193722 
-0.694927 0.0335455 -0.362017 -0.334279 0.0240106 -0.132731 -0.373833 0.107223 -0.102342 
-0.710545 0.0326213 -0.677366 -0.42101 -0.125932 -0.150151 -0.758773 0.138243 -0.38364 
-0.550321 0.0360825 -0.234576 -0.713741 0.262029 -0.78791 -0.537811 0.130834 -0.233669 
-0.856913 0.113647 -0.392569 -0.710812 -0.106264 -0.346525 -0.656701 -0.0494126 -0.681539 
-0.603665 -0.100137 -0.663334 -0.402405 -0.0427642 -0.140903 -0.657532 -0.0428858 -0.252806 
-0.762437 0.0447827 -0.226351 -0.557154 0.396895 -0.162709 -0.57782 -0.0108249 -0.217866 
-0.57338 0.0946082 -0.492798 -0.942466 -0.200763 -0.423935 -0.624186 -0.0872691 -0.311717 
-0.717035 0.128115 -0.718451 -0.531433 -0.0531418 -0.232077 -0.91915 0.292715 -0.71149 
-0.490662 0.048935 -0.177318 -0.725468 -0.117162 -0.212887 -0.489367 -0.379171 -0.630318 
-0.551947 -0.196403 -0.261517 -0.555338 -0.171795 -0.299466 -0.507585 -0.153965 -0.142627 
0 0 -1.07725 0 0 -1.04488 0 0 -1.00034 
0 0 -1.02153 -0.856526 0.0923144 -0.28758 0 0 -1 
0 0 -1.03537 0 0 -1.01673 0 0 -1.04351 
0 0 -1.0131 0 0 -1.01516 0 0 -1 
0 0 -1.06401 -0.83354 -0.361594 -0.273379 -1.03618 -0.43509 -0.36578 
-0.761135 0.0815401 -0.158222 -0.963723 0.268565 -0.094627 -0.804224 0.350953 -0.178946 
-0.670109 -0.033212 -0.255226 -0.631927 0.18773 -0.0262311 -0.723647 0.456217 0.0235998 
-0.726651 0.29919 -0.528907 -0.378013 0.0134915 -0.155819 -0.708551 -0.0312659 -0.223691 
-0.574512 0.0195184 -0.154397 -0.774557 0.0466027 -0.0137316 -0.758237 0.0215414 0.182202 
-0.658757 -0.0527229 -0.280886 -0.474629 0.166401 -0.405454 -0.626564 -0.0436045 -0.160863 
-0.697265 -0.187622 -0.467471 -0.713811 -0.0898236 -0.672161 -0.534966 -0.0158201 -0.239889 
-0.866966 0.0983837 -0.492355 -0.321061 -0.113209 -0.101292 -0.0131352 -0.0149115 0.0108259 
-0.154186 0.517549 -0.0684872 -0.0544238 0.259648 0.184421 -0.694099 0.0796093 -0.579026 
-0.561977 0.186905 -0.366411 -0.428094 -0.0524103 -0.174898 -0.723852 0.00933643 -0.5264 
-0.879891 0.228258 -0.355068 -0.338638 0.0114753 -0.12454 -0.729379 -0.109927 -0.283252 
-0.852857 -0.129779 -0.244984 -0.432323 0.0584714 -0.151146 -0.698765 0.416094 -0.710727 
-0.442733 0.0614991 -0.187449 -0.585466 -0.118696 -0.265477 -0.720465 -0.294153 0.0395273 
-0.665899 -0.0878805 -0.16016 0.0757511 -0.121913 -0.130977 -0.720911 -0.321481 0.0878013 
-0.718017 -0.258545 -0.0250361 -0.492995 0.117643 -0.0535272 -0.488742 -0.117456 -0.0280932 
-0.0760145 -0.173603 -0.00960724 -0.475646 0.140346 -0.489143 -0.943718 0.0829011 -0.00638958 
-0.513356 -0.0291514 -0.125366 -0.747568 0.139546 0.0362763 -0.375303 -0.128025 0.0271428 
-0.700478 0.2882 -0.457207 -0.456546 0.308584 -0.101084 -0.797187 -0.204279 -0.0792881 
-0.679876 -0.176736 -0.584091 -0.446687 0.072818 -0.146774 -0.661175 0.0869182 -0.365209 
-0.552884 0.338637 -0.111344 -0.461292 -0.264809 -0.125878 -0.5384 0.0244608 -0.276423 
-0.610653 -0.33883 -0.446324 -0.874506 -0.348042 -0.00776261 -0.717043 -0.319756 0.00772618 
-0.437577 0.365422 -0.112324 0.20208 0.483287 -0.0349725 -0.721012 0.264699 -0.373239 
0.0377387 -0.335671 0.339048 -0.749636 0.177467 -0.247183 0.038713 -0.353979 -0.0906263 
-0.128686 0.0338538 0.168296 -0.942729 0.245077 -0.286793 -0.571036 -0.0203545 -0.554532 
-0.17877 -0.193398 -0.0176187 -0.721806 0.26499 0.0047217 -0.718322 0.128345 0.215132 
-0.0831319 0.0888835 -0.51768 -0.715665 0.262736 -0.33389 -0.732067 0.106089 -0.33218 
-0.564397 -0.0160026 -0.378683 -0.484792 -0.154992 0.0985018 -0.733449 -0.171302 0.158642 
-0.720821 -0.261927 -0.02794 -0.305038 0.0711387 -0.277635 -0.453841 -0.057253 0.309283 
-0.13949 0.0501342 -0.043353 -0.588376 -0.269288 -0.0434987 -0.707116 -0.181681 0.108758 
-0.516135 -0.217682 -0.283946 -0.69277 -0.319147 0.157141 -0.62777 0.377698 0.0293458 
-0.700245 0.288104 0.224924 0 0 -2.06924 -0.606956 0.260552 0.00897848 
-0.581831 -0.151805 0.076884 -0.721182 -0.262058 0.2062 -0.474622 0.151328 -0.935247 
-0.718563 -0.261107 0.223625 -0.696734 0.254888 0.228625 -0.71625 0.26295 0.228632 
0 0 -2.03706 0 0 -2.02264 -0.241273 -0.298395 -0.817707 
0 0 -2.01715 0 0 -1.99704 0 0 -2.00518 
0 0 -1.98144 0 0 -1.97948 0 0 -1.96781 
0 0 -1.96702 0 0 -1.95309 0 0 -1.95348 
0 0 -1.9524 0 0 -1.93749 0 0 -1.92601 
0 0 -1.91248 0 0 -1.9061 0 0 -1.89982 
0 0 -1.88991 0 0 -1.88677 0 0 -1.88001 
0 0 -1.86804 0 0 -1.88315 0 0 -1.87647 
0 0 -1.83135 0 0 -1.84106 0 0 -1.82684 
0 0 -1.80722 0 0 -1.82213 0 0 -1.81722 
0 0 -1.81222 0 0 -1.80977 0 0 -1.7876 
0 0 -1.80143 0 0 -1.78387 0 0 -1.7512 
0 0 -1.74875 0 0 -1.75983 0 0 -1.74659 
0 0 -1.76062 0 0 -1.75699 0 0 -1.72717 
0 0 -1.71824 0 0 -1.71481 0 0 -1.70539 
0 0 -1.69067 0 0 -1.69048 0 0 -1.69273 
0 0 -1.69283 0 0 -1.65673 0 0 -1.66733 
0 0 -1.643 0 0 -1.64417 0 0 -1.63122 
0 0 -1.61386 0 0 -1.60297 0 0 -1.58816 
0 0 -1.59002 0 0 -1.58826 0 0 -1.60297 
0 0 -1.59159 0 0 -1.57354 0 0 -1.57609 
0 0 -1.54342 0 0 -1.54146 0 0 -1.53254 
0 0 -1.5395 0 0 -1.52547 0 0 -1.49997 
0 0 -1.49222 0 0 -1.49957 0 0 -1.50193 
0 0 -1.47848 0 0 -1.46926 0 0 -1.48761 
0 0 -1.46573 0 0 -1.42119 0 0 -1.43914 
0 0 -1.41982 0 0 -1.43601 0 0 -1.41158 
0 0 -1.39215 0 0 -1.4104 0 0 -1.40667 
0 0 -1.3692 0 0 -1.36567 0 0 -1.37263 
0 0 -1.3794 0 0 -1.37813 0 0 -1.34095 
0 0 -1.35144 0 0 -1.34919 0 0 -1.30808 
0 0 -1.31554 0 0 -1.32201 0 0 -1.29827 
0 0 -1.29513 0 0 -1.27846 0 0 -1.2764 
0 0 -1.27316 0 0 -1.25462 0 0 -1.27149 
0 0 -1.27071 0 0 -1.23225 0 0 -1.21871 
0 0 -1.21773 0 0 -1.24432 0 0 -1.2298 
0 0 -1.1986 0 0 -1.20351 0 0 -1.18095 
0 0 -1.17231 0 0 -1.18507 0 0 -1.18458 
0 0 -1.1575 0 0 -1.12326 0 0 -1.1422 
0 0 -1.13435 0 0 -1.13503 0 0 -1.15014 
0 0 -1.14857 0 0 -1.14769 0 0 -1.09305 
0 0 -1.11591 0 0 -1.07166 
f 3 353 double
0 0 -0.000346714 -6.25072e-05 -3.09655e-05 -8.65131e-05 -0.000150747 -3.09381e-05 0.000123348 
-0.000402875 -1.17626e-05 -0.000164706 -0.000733987 0.000393138 0.00485711 -8.68247e-05 3.60377e-05 -4.32487e-05 
-0.000831537 0.000102457 0.00144025 -8.33621e-05 -4.0031e-05 -4.14166e-05 0 0 -0.000346714 
0 0 -0.000346714 -0.000457338 0.000188877 -1.25937e-05 -8.74518e-05 1.99196e-05 -3.32332e-05 
0 0 -0.000346714 0 0 -0.000346714 0 0 -0.000346714 
-4.43349e-05 3.46092e-06 -0.000124598 0 0 -0.000346714 -0.000428017 -0.000144172 0.000309876 
0 0 -0.00160516 -0.000547586 5.1429e-06 0.000128762 -8.71747e-05 -1.37353e-05 -3.47061e-05 
0 0 -0.00160516 0 0 -0.000346714 0 0 -0.00160516 
-8.90705e-05 -5.49613e-07 -3.78246e-05 0 0 -0.000346714 0 0 -0.000346714 
0 0 -0.000346714 5.40851e-05 3.35097e-05 8.07185e-05 -7.2541e-05 -1.43982e-05 -4.18786e-05 
-8.66548e-05 -0.000102724 4.69195e-06 0 0 -0.00160516 0 0 -0.00160516 
-0.00708035 0.00261841 -0.00247515 0.00717842 -0.00346991 0.00473027 0 0 -0.000346714 
0 0 -0.000346714 0 0 -0.000346714 0 0 -0.000346714 
0 0 -0.00160516 -0.000432451 -7.32276e-05 -0.00012708 -0.000399442 -0.000145677 -0.000188896 
-8.13451e-05 6.24901e-05 -4.55317e-05 0 0 -0.000346714 0 0 -0.000346714 
0 0 -0.00160516 0 0 -0.00160516 0 0 -0.000346714 
-0.000357678 -0.000763807 -6.12089e-06 0 0 -0.000346714 -8.90691e-05 -1.9019e-06 -3.78387e-05 
0 0 -0.00160516 -8.88219e-05 -1.60725e-05 -3.83883e-05 -7.86618e-05 -6.47597e-05 -5.34877e-05 
0.00134157 -0.00153967 0.0153675 0 0 -0.00160516 -8.9805e-05 -2.60697e-06 -3.28598e-05 
0 0 -0.00160516 0.000106274 -0.000240159 2.22342e-05 -8.87242e-05 -1.74617e-05 -3.85098e-05 
0 0 -0.00160516 -3.7519e-05 -2.1674e-05 -0.000147758 0 0 -0.000346714 
-0.000207338 5.82479e-05 -0.000669297 -0.000407507 5.13328e-05 -0.000173107 -1.2668e-05 1.11577e-05 -0.000674184 
0.000644247 4.20476e-06 0.00141347 0 0 -0.000346714 0 0 -0.000346714 
-7.43336e-05 7.8266e-05 -6.3259e-05 0 0 -0.00160516 -0.000394656 0.000190183 -0.000194827 
0 0 -0.00160516 -8.8247e-05 9.86536e-06 -3.75401e-05 0 0 -0.000346714 
-0.000386337 -1.73414e-05 -0.00022639 0 0 -0.000346714 0 0 -0.000346714 
-9.3445e-05 -1.97666e-05 -3.79607e-05 0 0 -0.000346714 -8.76071e-05 2.46296e-05 -3.98703e-05 
0 0 -0.000346714 -9.49071e-05 -5.31957e-06 -2.45637e-05 0 0 -0.000346714 
0 0 -0.000346714 -8.9446e-05 -4.61573e-06 -3.69932e-05 0 0 -0.000346714 
-0.0158238 -0.00369429 0.0224731 8.13232e-05 -0.000105297 -0.000434157 0 0 -0.000346714 
0 0 -0.000346714 -8.48919e-05 3.98897e-05 -4.30056e-05 0 0 -0.000346714 
-8.86693e-05 9.32865e-06 -3.81399e-05 0 0 -0.000346714 -0.000468678 4.91307e-05 -4.89281e-05 
0 0 -0.000346714 0 0 -0.000346714 0 0 -0.00160516 
0 0 -0.000346714 -0.00440782 0.00561215 0.00415958 0 0 -0.000346714 
0.020335 -0.00118158 0.0404137 0 0 -0.000346714 0 0 -0.00160516 
0 0 -0.000346714 0 0 -0.00160516 0 0 -0.00160516 
0 0 -0.000346714 -0.000435252 -3.35754e-05 -0.000111492 0 0 -0.000346714 
-0.000264419 -0.000424734 0.00694684 -0.0103591 -0.014271 0.0364696 0 0 -0.000346714 
0 0 -0.000346714 0 0 -0.000346714 0 0 -0.000346714 
0 0 -0.000346714 0 0 -0.000346714 0 0 -0.00160516 
0 0 -0.000346714 0 0 -0.00160516 0 0 0 
0 0 -0.000346714 0 0 -0.000346714 0 0 -0.000346714 
0 0 -0.00160516 0 0 -0.00160516 0 0 0 
0 0 -0.000346714 0 0 -0.000346714 0 0 -0.00160516 
0 0 -0.00160516 0 0 -0.000346714 0 0 -0.00160516 
0 0 -0.000346714 0.0030913 -0.00357022 0.0452276 0 0 -0.000346714 