# vtk DataFile Version 4.0
Generated by LIGGGHTS
ASCII
DATASET POLYDATA
POINTS 837 float
-0.201583 -0.002614 -0.188699 -0.20053 -0.0166059 -0.187185 -0.455661 -0.0134783 -0.398024 
-0.457451 -0.00777755 -0.398159 -0.476442 -0.000312502 -0.397598 -0.461785 0.0321732 -0.398461 
-0.459934 -0.0190559 -0.394668 -0.473165 -0.0148099 -0.395125 -0.457351 0.00611815 -0.39546 
-0.458533 -0.0108457 -0.39143 -0.457701 0.0159067 -0.389515 -0.477791 -0.0231905 -0.388464 
-0.469453 -0.0181778 -0.386545 -0.455169 -0.0150322 -0.388881 -0.449792 -0.00870579 -0.38774 
-0.455414 0.00509335 -0.386996 -0.463329 -0.018854 -0.384568 -0.476213 0.00569458 -0.385679 
-0.449593 0.00592652 -0.382679 -0.461722 0.0115462 -0.383584 -0.491567 0.0638841 -0.383004 
-0.441759 0.0202442 -0.376962 -0.467156 -0.000940383 -0.374216 -0.437419 0.0342327 -0.368945 
-0.432206 0.00935856 -0.364892 -0.453316 -0.00966087 -0.360247 -0.450713 0.0168097 -0.36019 
-0.446321 -0.00733762 -0.355332 -0.449969 -0.0160812 -0.353523 -0.43334 -0.00707248 -0.352057 
-0.444752 0.00782444 -0.352493 -0.431606 0.0162215 -0.352398 -0.445081 -0.0314602 -0.345659 
-0.445925 -0.0282226 -0.341184 -0.411845 -0.00719518 -0.337952 -0.43996 0.000832492 -0.338396 
-0.408109 0.0121772 -0.336362 -0.431951 0.0240381 -0.336764 -0.428189 -0.0238737 -0.335003 
-0.431039 0.00277158 -0.333313 -0.428338 0.00545572 -0.329446 -0.444411 0.0248526 -0.332492 
-0.430224 -0.00324123 -0.325399 -0.426509 -0.00186349 -0.328312 -0.41118 -0.00156908 -0.325466 
-0.415275 0.00400575 -0.328546 -0.419795 0.00280158 -0.322584 -0.415032 0.00437286 -0.322488 
-0.418049 -0.0119139 -0.319988 -0.410716 0.00864726 -0.314675 -0.414839 0.0258961 -0.317899 
-0.41726 -0.0106308 -0.31338 -0.40716 -0.00603361 -0.31157 -0.419721 -0.00256 -0.313647 
-0.391842 0.000461969 -0.312233 -0.39109 0.00620235 -0.314282 -0.405228 0.0229549 -0.313994 
-0.42787 0.0502763 -0.312239 -0.417814 -0.0117056 -0.308487 -0.41198 -0.0101752 -0.309628 
-0.411146 -0.00342561 -0.309059 -0.408841 0.000593568 -0.308426 -0.406503 0.0165527 -0.310179 
-0.401968 0.0143059 -0.310139 -0.398274 0.0132962 -0.304258 -0.390405 0.013362 -0.30404 
-0.42922 0.0313641 -0.305795 -0.403895 0.0214541 -0.303573 -0.400055 -0.00749579 -0.29864 
-0.405007 -0.00395171 -0.299083 -0.400822 0.000467589 -0.296922 -0.397573 0.00951713 -0.299342 
-0.386815 0.0123097 -0.298923 -0.399191 0.0169824 -0.296756 -0.397108 -0.0075576 -0.29515 
-0.396729 -0.00331556 -0.294733 -0.396261 0.0267128 -0.2959 -0.399545 -0.0244522 -0.29197 
-0.39179 -0.0172673 -0.29006 -0.393634 0.0135696 -0.292468 -0.38887 0.0139901 -0.290771 
-0.386676 0.0260949 -0.289558 -0.389407 -0.0157146 -0.287251 -0.385166 -0.00454495 -0.286433 
-0.379318 0.00390679 -0.286236 -0.383809 0.00855387 -0.28671 -0.387129 0.0143067 -0.286333 
-0.388517 0.0176064 -0.288428 -0.383669 0.0191398 -0.287679 -0.404329 0.03581 -0.288687 
-0.431226 0.0571677 -0.288415 -0.39232 -0.0260893 -0.28232 -0.382677 -0.0185031 -0.283792 
-0.392265 0.0227005 -0.285594 -0.37547 -0.0020963 -0.279868 -0.379181 0.00212739 -0.282075 
-0.375481 0.0035347 -0.280371 -0.378399 0.00885784 -0.280832 -0.375136 0.00805006 -0.281441 
-0.387984 0.0140249 -0.280277 -0.387043 -0.0239812 -0.276583 -0.368168 0.00844447 -0.276364 
-0.374845 -0.0246492 -0.274568 -0.370181 -0.0113469 -0.274125 -0.368164 -0.00548785 -0.27293 
-0.373685 -0.0023856 -0.271468 -0.366113 -0.00328667 -0.272846 -0.370478 -0.00936288 -0.268991 
-0.368408 -0.00672729 -0.269565 -0.361143 0.00544272 -0.268018 -0.374502 0.0140269 -0.26979 
-0.36889 -0.026528 -0.26481 -0.366793 -0.0200893 -0.265001 -0.365645 -0.00691835 -0.266605 
-0.365734 -0.00285483 -0.266231 -0.364197 0.0127858 -0.267302 -0.36293 -0.0240085 -0.263085 
-0.361259 -0.0202816 -0.262086 -0.362267 -0.0169153 -0.263463 -0.364124 -0.00841936 -0.2624 
-0.357335 -0.0157965 -0.259299 -0.353178 -0.00950053 -0.257371 -0.344497 0.00121377 -0.256827 
-0.354502 0.00394684 -0.26014 -0.358835 0.0248664 -0.259612 -0.363322 0.029013 -0.257691 
-0.349524 -0.0113957 -0.256087 -0.345932 -0.00899588 -0.256099 -0.350611 -0.00529967 -0.255101 
-0.348794 0.00821298 -0.254411 -0.34831 0.0201442 -0.253789 -0.358455 -0.0365391 -0.25232 
-0.349249 -0.0241721 -0.252167 -0.344395 -0.0131161 -0.252793 -0.346772 0.0149248 -0.252611 
-0.344412 -0.0177313 -0.246907 -0.338293 0.00217939 -0.248951 -0.343336 0.0186165 -0.249217 
-0.366329 -0.0506353 -0.245532 -0.353676 -0.0473597 -0.244021 -0.333015 -0.0275098 -0.24282 
-0.335026 -0.0240347 -0.245118 -0.326962 -0.017857 -0.242249 -0.331632 -0.014792 -0.243618 
-0.326757 -0.0144246 -0.242645 -0.334782 -0.0102377 -0.245862 -0.3286 0.00690894 -0.244504 
-0.328901 0.0177441 -0.243348 -0.330902 0.0256143 -0.242631 -0.323651 -0.015741 -0.240143 
-0.35001 -0.0114548 -0.242402 -0.319304 -0.0137931 -0.239779 -0.327091 -0.0102079 -0.24211 
-0.315104 -0.0089618 -0.23857 -0.321299 -0.0063272 -0.240162 -0.319151 -0.00271336 -0.2406 
-0.315547 -0.00103141 -0.239162 -0.322355 0.00207612 -0.240854 -0.317128 0.00386862 -0.239622 
-0.316182 0.00693551 -0.239029 -0.319497 0.0121701 -0.239011 -0.325047 0.0165841 -0.240596 
-0.322531 0.0210743 -0.238893 -0.325483 0.0259502 -0.239884 -0.327147 0.0291421 -0.239592 
-0.331149 -0.0360375 -0.238811 -0.324218 -0.0335414 -0.235744 -0.312721 -0.0177914 -0.236311 
-0.31535 -0.0144707 -0.237895 -0.31121 -0.0147442 -0.236116 -0.312417 -0.0110449 -0.237113 
-0.312544 -0.0077085 -0.237626 -0.312368 -0.00378586 -0.237722 -0.308269 -0.00661307 -0.235892 
-0.3107 -0.000309637 -0.237141 -0.309625 -0.00327844 -0.236581 -0.306959 -0.00258981 -0.235337 
-0.313593 0.00144176 -0.238287 -0.311346 0.00315292 -0.237241 -0.308037 0.000455516 -0.235962 
-0.313762 0.00507511 -0.238127 -0.31431 0.0133611 -0.237807 -0.308396 0.0117498 -0.235372 
-0.312393 0.0161379 -0.235366 -0.312188 0.0202905 -0.235571 -0.317349 0.0217118 -0.237449 
-0.329222 0.0358174 -0.238173 -0.30689 -0.0132198 -0.234596 -0.304295 -0.0110254 -0.233784 
-0.306601 -0.00947187 -0.234955 -0.305027 -0.00680149 -0.234519 -0.306117 0.000106467 -0.23352 
-0.302446 0.00118266 -0.231988 -0.311363 0.00615419 -0.234608 -0.305868 0.0043681 -0.233757 
-0.300695 0.004898 -0.232632 -0.298704 0.00698836 -0.231659 -0.307226 0.00871012 -0.23441 
-0.305286 0.0146736 -0.233782 -0.304465 0.0174137 -0.232847 -0.308621 0.0179144 -0.234407 
-0.314456 0.0254305 -0.234419 -0.332894 0.0467905 -0.23302 -0.302871 -0.0129732 -0.230785 
-0.293843 -0.00723507 -0.229787 -0.295992 -0.00362895 -0.230682 -0.293159 -0.0025465 -0.229661 
-0.296936 0.00306046 -0.231162 -0.293816 0.00391962 -0.228703 -0.290222 0.00558413 -0.228171 
-0.292968 0.00867019 -0.229133 -0.295161 0.0127081 -0.228715 -0.303175 0.022649 -0.231351 
-0.300554 0.0250132 -0.229797 -0.305821 0.0321369 -0.228719 -0.30415 0.0358277 -0.22795 
-0.320097 -0.0476514 -0.227444 -0.294448 -0.0242412 -0.226391 -0.28933 -0.0168073 -0.226849 
-0.292386 -0.0126332 -0.227544 -0.300993 -0.0039342 -0.225706 -0.288237 -0.00661556 -0.227444 
-0.284118 -0.00450072 -0.225779 -0.286139 -0.00195694 -0.226718 -0.290507 0.000328066 -0.227543 
-0.286789 0.00487597 -0.226767 -0.285365 0.00775297 -0.225974 -0.284749 0.0106627 -0.225435 
-0.286478 0.0140925 -0.226044 -0.291189 0.017811 -0.226056 -0.296962 0.0209179 -0.227998 
-0.294046 0.0245992 -0.226103 -0.298988 0.0335445 -0.226394 -0.293875 -0.0352809 -0.223959 
-0.289496 -0.0287338 -0.224158 -0.281225 -0.0238174 -0.222149 -0.279344 -0.00623921 -0.222623 
-0.282249 -0.000268438 -0.224049 -0.272987 -0.00163298 -0.221183 -0.276686 0.00410914 -0.222573 
-0.279898 0.0100379 -0.223567 -0.282276 0.0147702 -0.223025 -0.276395 0.0185322 -0.220942 
-0.289553 0.0346325 -0.222425 -0.278555 -0.023223 -0.220873 -0.26738 -0.014313 -0.217928 
-0.272286 -0.0046203 -0.220789 -0.270035 -0.00283027 -0.219903 -0.272135 0.00207936 -0.220781 
-0.273257 0.00537233 -0.221086 -0.276606 0.0103158 -0.220978 -0.278152 0.022847 -0.21987 
-0.263668 -0.0201932 -0.215522 -0.264153 -0.01635 -0.21452 -0.262967 -0.0123861 -0.216299 
-0.266815 -0.00923894 -0.217177 -0.257093 0.00255915 -0.214368 -0.264131 0.0216658 -0.21538 
-0.269078 0.0250978 -0.216822 -0.265869 0.0254931 -0.215398 -0.277134 0.0379862 -0.216432 
-0.283392 0.0436812 -0.215236 -0.260213 -0.0240424 -0.213155 -0.252598 -0.00862476 -0.212298 
-0.24917 -0.00886271 -0.210833 -0.255952 2.68574e-05 -0.211342 -0.256962 0.00946227 -0.212934 
-0.253059 0.00778876 -0.212458 -0.254188 0.0134596 -0.212472 -0.260797 0.0199735 -0.213166 
-0.256871 -0.0348955 -0.209115 -0.252513 -0.0285303 -0.207691 -0.253295 -0.0252584 -0.210111 
-0.249511 -0.0245577 -0.20879 -0.24642 -0.0109632 -0.209522 -0.245698 -0.00774783 -0.209417 
-0.240439 -0.00784739 -0.207159 -0.240432 -0.00456671 -0.207365 -0.244956 0.00805047 -0.207953 
-0.241625 0.0108049 -0.207536 -0.242822 0.0180896 -0.207012 -0.251017 0.0273353 -0.207891 
-0.262122 0.0436757 -0.207976 -0.264383 -0.0470492 -0.206303 -0.241673 -0.0191338 -0.20532 
-0.242112 -0.0136244 -0.206343 -0.237335 -0.00815493 -0.205752 -0.236566 -0.00424311 -0.204608 
-0.232257 -0.00492053 -0.203856 -0.231717 -0.000567774 -0.203744 -0.235327 0.000288593 -0.205251 
-0.239986 0.0055811 -0.205943 -0.234836 0.00501465 -0.204893 -0.239388 0.0144647 -0.205019 
-0.242105 0.0219668 -0.206165 -0.242553 0.0256951 -0.204489 -0.245717 0.0289569 -0.206122 
-0.246193 -0.0401532 -0.203126 -0.225759 -0.0122234 -0.199813 -0.231353 -0.00861938 -0.202026 
-0.232879 0.00125705 -0.200232 -0.226918 0.00138162 -0.201641 -0.231505 0.0115977 -0.202051 
-0.225736 0.0105703 -0.200837 -0.225894 0.0166917 -0.200123 -0.23636 -0.0462323 -0.196752 
-0.22323 -0.0181457 -0.198925 -0.223757 -0.0144932 -0.199381 -0.221586 -0.0118999 -0.198767 
-0.230413 -0.00919144 -0.196987 -0.223243 -0.00957724 -0.199689 -0.220364 -0.00841085 -0.197204 
-0.224067 0.00318207 -0.199301 -0.220183 0.000730883 -0.198434 -0.222347 0.0142626 -0.197847 
-0.211635 -0.0126855 -0.194552 -0.212142 -0.0095351 -0.19508 -0.217708 -0.00685428 -0.19285 
[...]
POINT_DATA 837
FIELD FieldData 7
id 1 837 int
741 729 349 273 421 448 358 477 374 
432 423 523 452 409 415 394 437 446 
447 410 510 499 400 490 382 443 399 
442 470 385 475 276 195 449 462 461 
427 540 467 387 483 561 464 343 465 
428 513 458 430 471 494 478 472 469 
611 353 473 436 460 484 434 480 459 
502 357 550 526 431 351 408 433 440 
390 453 476 422 397 568 418 533 416 
525 479 435 451 466 368 417 509 573 
596 501 363 537 500 375 599 450 340 
615 630 364 412 455 554 558 505 582 
492 507 583 560 522 645 482 541 508 
543 564 603 619 498 366 530 578 719 
361 493 497 574 566 520 420 515 572 
662 445 534 676 677 581 518 489 546 
553 559 538 656 516 511 512 487 571 
514 495 531 454 444 556 529 549 548 
635 809 683 648 702 565 527 519 576 
545 503 542 551 589 506 524 488 491 
528 588 591 521 517 474 620 602 604 
563 594 486 715 562 485 698 606 532 
557 655 609 624 586 608 614 555 661 
577 610 552 658 598 629 685 742 590 
675 547 627 650 726 595 621 711 587 
580 674 654 633 652 575 600 734 775 
647 628 613 585 632 570 680 625 681 
692 699 682 707 607 631 671 716 536 
263 637 694 612 617 673 644 641 725 
690 592 736 666 812 640 634 601 597 
622 639 712 735 567 669 616 643 636 
544 653 774 686 623 727 638 657 649 
642 700 721 691 539 688 710 703 697 
646 739 665 626 569 704 668 593 667 
744 713 670 898 660 678 651 784 701 
684 720 740 760 755 663 717 679 724 
579 800 664 754 730 718 776 794 757 
782 672 822 714 867 801 827 1026 696 
747 706 917 814 756 962 709 777 769 
750 810 753 732 695 758 928 820 788 
826 846 708 903 838 790 748 765 823 
738 705 789 792 816 722 737 752 839 
805 723 693 875 764 766 837 780 733 
803 771 833 828 781 808 798 866 687 
728 853 856 743 773 845 819 849 795 
797 785 840 778 759 762 783 751 836 
818 772 746 942 689 874 888 832 854 
768 843 900 731 889 848 958 787 908 
871 813 882 891 763 811 817 830 806 
862 767 858 911 852 829 807 916 841 
872 799 883 873 851 824 831 796 791 
892 761 909 815 956 786 821 863 804 
922 864 870 659 859 957 931 902 847 
918 954 868 793 907 943 919 897 904 
857 855 878 941 913 940 844 910 749 
930 881 880 945 887 876 894 899 879 
921 915 896 935 901 953 906 923 884 
770 605 835 842 914 865 861 912 860 
925 964 924 825 939 885 890 893 920 
779 834 933 971 959 949 850 944 1006 
955 905 1004 946 936 938 969 895 1003 
1009 950 965 972 869 975 991 981 979 
1018 1019 986 926 1016 877 947 960 886 
1014 966 1052 989 980 997 1027 951 976 
1011 1036 970 983 974 948 1020 1034 1022 
1049 934 1235 988 1233 967 977 987 985 
1230 1025 1028 1238 1030 961 937 1017 1032 
1040 932 973 984 1038 1046 998 1023 994 
1021 999 1010 929 1073 927 1029 1037 1070 
1033 978 1012 1042 963 1071 995 1048 1000 
1001 1041 1076 1015 1007 1085 1084 1008 1056 
1068 1067 982 1005 952 992 1079 1063 1078 
1081 1061 1094 1077 990 1031 1055 1096 996 
1066 1035 1083 1002 1013 1075 1060 968 1064 
1057 1074 1072 1092 1039 1080 1058 1091 1059 
1044 1047 1054 1024 993 1088 1053 1050 1082 
1089 1043 1090 1098 1069 1045 1087 1065 1062 
1093 1086 1097 1095 1051 1105 802 1108 1103 
1110 1099 1109 1107 1101 1104 1102 1111 745 
1106 1100 1123 1117 1122 1114 1119 1118 1124 
1116 1120 1121 1131 1112 1113 1115 1137 1135 
1126 1128 1130 1127 1129 1133 1132 1125 1136 
1144 1134 1141 1142 1140 1143 1148 1138 1149 
1145 1146 1139 1147 1150 1163 1156 1154 1160 
1161 1157 1152 1153 1162 1159 1151 1155 1158 
1169 1170 1168 1173 1167 1174 1165 1164 1171 
1166 1172 1175 1185 1184 1187 1179 1182 1176 
1186 1183 1188 1180 1177 1181 1194 1178 1199 
1193 1189 1198 1192 1197 1201 1196 1190 1195 
1200 1210 1205 1204 1209 1213 1191 1202 1208 
1206 1207 1211 1212 1203 1214 1221 1218 1219 
1220 1225 1223 1216 1215 1226 1224 1222 1217 
1236 1232 1229 1234 1228 1231 1237 1227 1239 

type 1 837 int
1 1 1 1 1 1 1 1 1 
1 1 1 1 1 1 1 1 1 
1 1 1 1 1 1 1 1 1 
1 1 1 1 1 1 1 1 1 
1 1 1 1 1 1 1 1 1 
1 1 1 1 1 1 1 1 1 
1 1 1 1 1 1 1 1 1 
1 1 1 1 1 1 1 1 1 
1 1 1 1 1 1 1 1 1 
1 1 1 1 1 1 1 1 1 
1 1 1 1 1 1 1 1 1 
1 1 1 1 1 1 1 1 1 
1 1 1 1 1 1 1 1 1 
1 1 1 1 1 1 1 1 1 
1 1 1 1 1 1 1 1 1 
1 1 1 1 1 1 1 1 1 
1 1 1 1 1 1 1 1 1 
1 1 1 1 1 1 1 1 1 
1 1 1 1 1 1 1 1 1 
1 1 1 1 1 1 1 1 1 
1 1 1 1 1 1 1 1 1 
1 1 1 1 1 1 1 1 1 
1 1 1 1 1 1 1 1 1 
1 1 1 1 1 1 1 1 1 
1 1 1 1 1 1 1 1 1 
1 1 1 1 1 1 1 1 1 
1 1 1 1 1 1 1 1 1 
1 1 1 1 1 1 1 1 1 
1 1 1 1 1 1 1 1 1 
1 1 1 1 1 1 1 1 1 
1 1 1 1 1 1 1 1 1 
1 1 1 1 1 1 1 1 1 
1 1 1 1 1 1 1 1 1 
1 1 1 1 1 1 1 1 1 
1 1 1 1 1 1 1 1 1 
1 1 1 1 1 1 1 1 1 
1 1 1 1 1 1 1 1 1 
1 1 1 1 1 1 1 1 1 
1 1 1 1 1 1 1 1 1 
1 1 1 1 1 1 1 1 1 
1 1 1 1 1 1 1 1 1 
1 1 1 1 1 1 1 1 1 
1 1 1 1 1 1 1 1 1 
1 1 1 1 1 1 1 1 1 
1 1 1 1 1 1 1 1 1 
1 1 1 1 1 1 1 1 1 
1 1 1 1 1 1 1 1 1 
1 1 1 1 1 1 1 1 1 
1 1 1 1 1 1 1 1 1 
1 1 1 1 1 1 1 1 1 
1 1 1 1 1 1 1 1 1 
1 1 1 1 1 1 1 1 1 
1 1 1 1 1 1 1 1 1 
1 1 1 1 1 1 1 1 1 
1 1 1 1 1 1 1 1 1 
1 1 1 1 1 1 1 1 1 
1 1 1 1 1 1 1 1 1 
1 1 1 1 1 1 1 1 1 
1 1 1 1 1 1 1 1 1 
1 1 1 1 1 1 1 1 1 
1 1 1 1 1 1 1 1 1 
1 1 1 1 1 1 1 1 1 
1 1 1 1 1 1 1 1 1 
1 1 1 1 1 1 1 1 1 
1 1 1 1 1 1 1 1 1 
1 1 1 1 1 1 1 1 1 
1 1 1 1 1 1 1 1 1 
1 1 1 1 1 1 1 1 1 
1 1 1 1 1 1 1 1 1 
1 1 1 1 1 1 1 1 1 
1 1 1 1 1 1 1 1 1 
1 1 1 1 1 1 1 1 1 
1 1 1 1 1 1 1 1 1 
1 1 1 1 1 1 1 1 1 
1 1 1 1 1 1 1 1 1 
1 1 1 1 1 1 1 1 1 
1 1 1 1 1 1 1 1 1 
1 1 1 1 1 1 1 1 1 
1 1 1 1 1 1 1 1 1 
1 1 1 1 1 1 1 1 1 
1 1 1 1 1 1 1 1 1 
1 1 1 1 1 1 1 1 1 
1 1 1 1 1 1 1 1 1 
1 1 1 1 1 1 1 1 1 
1 1 1 1 1 1 1 1 1 
1 1 1 1 1 1 1 1 1 
1 1 1 1 1 1 1 1 1 
1 1 1 1 1 1 1 1 1 
1 1 1 1 1 1 1 1 1 
1 1 1 1 1 1 1 1 1 
1 1 1 1 1 1 1 1 1 
1 1 1 1 1 1 1 1 1 
1 1 1 1 1 1 1 1 1 

i 3 837 int
0 0 0 0 0 0 0 0 0 
0 0 0 0 0 0 0 0 0 
0 0 0 0 0 0 0 0 0 
0 0 0 0 0 0 0 0 0 
0 0 0 0 0 0 0 0 0 
0 0 0 0 0 0 0 0 0 
0 0 0 0 0 0 0 0 0 
0 0 0 0 0 0 0 0 0 
0 0 0 0 0 0 0 0 0 
0 0 0 0 0 0 0 0 0 
0 0 0 0 0 0 0 0 0 
0 0 0 0 0 0 0 0 0 
0 0 0 0 0 0 0 0 0 
0 0 0 0 0 0 0 0 0 
0 0 0 0 0 0 0 0 0 
0 0 0 0 0 0 0 0 0 
0 0 0 0 0 0 0 0 0 
0 0 0 0 0 0 0 0 0 
0 0 0 0 0 0 0 0 0 
0 0 0 0 0 0 0 0 0 
0 0 0 0 0 0 0 0 0 
0 0 0 0 0 0 0 0 0 
0 0 0 0 0 0 0 0 0 
0 0 0 0 0 0 0 0 0 
0 0 0 0 0 0 0 0 0 
0 0 0 0 0 0 0 0 0 
0 0 0 0 0 0 0 0 0 
0 0 0 0 0 0 0 0 0 
0 0 0 0 0 0 0 0 0 
0 0 0 0 0 0 0 0 0 
0 0 0 0 0 0 0 0 0 
0 0 0 0 0 0 0 0 0 
0 0 0 0 0 0 0 0 0 
0 0 0 0 0 0 0 0 0 
0 0 0 0 0 0 0 0 0 
0 0 0 0 0 0 0 0 0 
0 0 0 0 0 0 0 0 0 
0 0 0 0 0 0 0 0 0 
0 0 0 0 0 0 0 0 0 
0 0 0 0 0 0 0 0 0 
0 0 0 0 0 0 0 0 0 
0 0 0 0 0 0 0 0 0 
0 0 0 0 0 0 0 0 0 
0 0 0 0 0 0 0 0 0 
0 0 0 0 0 0 0 0 0 
0 0 0 0 0 0 0 0 0 
0 0 0 0 0 0 0 0 0 
0 0 0 0 0 0 0 0 0 
0 0 0 0 0 0 0 0 0 
0 0 0 0 0 0 0 0 0 
0 0 0 0 0 0 0 0 0 
0 0 0 0 0 0 0 0 0 
0 0 0 0 0 0 0 0 0 
0 0 0 0 0 0 0 0 0 
0 0 0 0 0 0 0 0 0 
0 0 0 0 0 0 0 0 0 
0 0 0 0 0 0 0 0 0 
0 0 0 0 0 0 0 0 0 
0 0 0 0 0 0 0 0 0 
0 0 0 0 0 0 0 0 0 
0 0 0 0 0 0 0 0 0 
0 0 0 0 0 0 0 0 0 
0 0 0 0 0 0 0 0 0 
0 0 0 0 0 0 0 0 0 
0 0 0 0 0 0 0 0 0 
0 0 0 0 0 0 0 0 0 
0 0 0 0 0 0 0 0 0 
0 0 0 0 0 0 0 0 0 
0 0 0 0 0 0 0 0 0 
0 0 0 0 0 0 0 0 0 
0 0 0 0 0 0 0 0 0 
0 0 0 0 0 0 0 0 0 
0 0 0 0 0 0 0 0 0 
0 0 0 0 0 0 0 0 0 
0 0 0 0 0 0 0 0 0 
0 0 0 0 0 0 0 0 0 
0 0 0 0 0 0 0 0 0 
0 0 0 0 0 0 0 0 0 
0 0 0 0 0 0 0 0 0 
0 0 0 0 0 0 0 0 0 
0 0 0 0 0 0 0 0 0 
0 0 0 0 0 0 0 0 0 
0 0 0 0 0 0 0 0 0 
0 0 0 0 0 0 0 0 0 
0 0 0 0 0 0 0 0 0 
0 0 0 0 0 0 0 0 0 
0 0 0 0 0 0 0 0 0 
0 0 0 0 0 0 0 0 0 
0 0 0 0 0 0 0 0 0 
0 0 0 0 0 0 0 0 0 
0 0 0 0 0 0 0 0 0 
0 0 0 0 0 0 0 0 0 
0 0 0 0 0 0 0 0 0 
0 0 0 0 0 0 0 0 0 
0 0 0 0 0 0 0 0 0 
0 0 0 0 0 0 0 0 0 
0 0 0 0 0 0 0 0 0 
0 0 0 0 0 0 0 0 0 
0 0 0 0 0 0 0 0 0 
0 0 0 0 0 0 0 0 0 
0 0 0 0 0 0 0 0 0 
0 0 0 0 0 0 0 0 0 
0 0 0 0 0 0 0 0 0 
0 0 0 0 0 0 0 0 0 
0 0 0 0 0 0 0 0 0 
0 0 0 0 0 0 0 0 0 
0 0 0 0 0 0 0 0 0 
0 0 0 0 0 0 0 0 0 
0 0 0 0 0 0 0 0 0 
0 0 0 0 0 0 0 0 0 
0 0 0 0 0 0 0 0 0 
0 0 0 0 0 0 0 0 0 
0 0 0 0 0 0 0 0 0 
0 0 0 0 0 0 0 0 0 
0 0 0 0 0 0 0 0 0 
0 0 0 0 0 0 0 0 0 
0 0 0 0 0 0 0 0 0 
0 0 0 0 0 0 0 0 0 
0 0 0 0 0 0 0 0 0 
0 0 0 0 0 0 0 0 0 
0 0 0 0 0 0 0 0 0 
0 0 0 0 0 0 0 0 0 
0 0 0 0 0 0 0 0 0 
0 0 0 0 0 0 0 0 0 
0 0 0 0 0 0 0 0 0 
0 0 0 0 0 0 0 0 0 
0 0 0 0 0 0 0 0 0 
0 0 0 0 0 0 0 0 0 
0 0 0 0 0 0 0 0 0 
0 0 0 0 0 0 0 0 0 
0 0 0 0 0 0 0 0 0 
0 0 0 0 0 0 0 0 0 
0 0 0 0 0 0 0 0 0 
0 0 0 0 0 0 0 0 0 
0 0 0 0 0 0 0 0 0 
0 0 0 0 0 0 0 0 0 
0 0 0 0 0 0 0 0 0 
0 0 0 0 0 0 0 0 0 
0 0 0 0 0 0 0 0 0 
0 0 0 0 0 0 0 0 0 
0 0 0 0 0 0 0 0 0 
0 0 0 0 0 0 0 0 0 
0 0 0 0 0 0 0 0 0 
0 0 0 0 0 0 0 0 0 
0 0 0 0 0 0 0 0 0 
0 0 0 0 0 0 0 0 0 
0 0 0 0 0 0 0 0 0 
0 0 0 0 0 0 0 0 0 
0 0 0 0 0 0 0 0 0 
0 0 0 0 0 0 0 0 0 
0 0 0 0 0 0 0 0 0 
0 0 0 0 0 0 0 0 0 
0 0 0 0 0 0 0 0 0 
0 0 0 0 0 0 0 0 0 
0 0 0 0 0 0 0 0 0 
0 0 0 0 0 0 0 0 0 
0 0 0 0 0 0 0 0 0 
0 0 0 0 0 0 0 0 0 
0 0 0 0 0 0 0 0 0 
0 0 0 0 0 0 0 0 0 
0 0 0 0 0 0 0 0 0 
0 0 0 0 0 0 0 0 0 
0 0 0 0 0 0 0 0 0 
0 0 0 0 0 0 0 0 0 
0 0 0 0 0 0 0 0 0 
0 0 0 0 0 0 0 0 0 
0 0 0 0 0 0 0 0 0 
0 0 0 0 0 0 0 0 0 
0 0 0 0 0 0 0 0 0 
0 0 0 0 0 0 0 0 0 
0 0 0 0 0 0 0 0 0 
0 0 0 0 0 0 0 0 0 
0 0 0 0 0 0 0 0 0 
0 0 0 0 0 0 0 0 0 
0 0 0 0 0 0 0 0 0 
0 0 0 0 0 0 0 0 0 
0 0 0 0 0 0 0 0 0 
0 0 0 0 0 0 0 0 0 
0 0 0 0 0 0 0 0 0 
0 0 0 0 0 0 0 0 0 
0 0 0 0 0 0 0 0 0 
0 0 0 0 0 0 0 0 0 
0 0 0 0 0 0 0 0 0 
0 0 0 0 0 0 0 0 0 
0 0 0 0 0 0 0 0 0 
0 0 0 0 0 0 0 0 0 
0 0 0 0 0 0 0 0 0 
0 0 0 0 0 0 0 0 0 
0 0 0 0 0 0 0 0 0 
0 0 0 0 0 0 0 0 0 
0 0 0 0 0 0 0 0 0 
0 0 0 0 0 0 0 0 0 
0 0 0 0 0 0 0 0 0 
0 0 0 0 0 0 0 0 0 
0 0 0 0 0 0 0 0 0 
0 0 0 0 0 0 0 0 0 
0 0 0 0 0 0 0 0 0 
0 0 0 0 0 0 0 0 0 
0 0 0 0 0 0 0 0 0 
0 0 0 0 0 0 0 0 0 
0 0 0 0 0 0 0 0 0 
0 0 0 0 0 0 0 0 0 
0 0 0 0 0 0 0 0 0 
0 0 0 0 0 0 0 0 0 
0 0 0 0 0 0 0 0 0 
0 0 0 0 0 0 0 0 0 
0 0 0 0 0 0 0 0 0 
0 0 0 0 0 0 0 0 0 
0 0 0 0 0 0 0 0 0 
0 0 0 0 0 0 0 0 0 
0 0 0 0 0 0 0 0 0 
0 0 0 0 0 0 0 0 0 
0 0 0 0 0 0 0 0 0 
0 0 0 0 0 0 0 0 0 
0 0 0 0 0 0 0 0 0 
0 0 0 0 0 0 0 0 0 
0 0 0 0 0 0 0 0 0 
0 0 0 0 0 0 0 0 0 
0 0 0 0 0 0 0 0 0 
0 0 0 0 0 0 0 0 0 
0 0 0 0 0 0 0 0 0 
0 0 0 0 0 0 0 0 0 
0 0 0 0 0 0 0 0 0 
0 0 0 0 0 0 0 0 0 
0 0 0 0 0 0 0 0 0 
0 0 0 0 0 0 0 0 0 
0 0 0 0 0 0 0 0 0 
0 0 0 0 0 0 0 0 0 
0 0 0 0 0 0 0 0 0 
0 0 0 0 0 0 0 0 0 
0 0 0 0 0 0 0 0 0 
0 0 0 0 0 0 0 0 0 
0 0 0 0 0 0 0 0 0 
0 0 0 0 0 0 0 0 0 
0 0 0 0 0 0 0 0 0 
0 0 0 0 0 0 0 0 0 
0 0 0 0 0 0 0 0 0 
0 0 0 0 0 0 0 0 0 
0 0 0 0 0 0 0 0 0 
0 0 0 0 0 0 0 0 0 
0 0 0 0 0 0 0 0 0 
0 0 0 0 0 0 0 0 0 
0 0 0 0 0 0 0 0 0 
0 0 0 0 0 0 0 0 0 
0 0 0 0 0 0 0 0 0 
0 0 0 0 0 0 0 0 0 
0 0 0 0 0 0 0 0 0 
0 0 0 0 0 0 0 0 0 
0 0 0 0 0 0 0 0 0 
0 0 0 0 0 0 0 0 0 
0 0 0 0 0 0 0 0 0 
0 0 0 0 0 0 0 0 0 
0 0 0 0 0 0 0 0 0 
0 0 0 0 0 0 0 0 0 
0 0 0 0 0 0 0 0 0 
0 0 0 0 0 0 0 0 0 
0 0 0 0 0 0 0 0 0 
0 0 0 0 0 0 0 0 0 
0 0 0 0 0 0 0 0 0 
0 0 0 0 0 0 0 0 0 
0 0 0 0 0 0 0 0 0 
0 0 0 0 0 0 0 0 0 
0 0 0 0 0 0 0 0 0 
0 0 0 0 0 0 0 0 0 
0 0 0 0 0 0 0 0 0 
0 0 0 0 0 0 0 0 0 
0 0 0 0 0 0 0 0 0 
0 0 0 0 0 0 0 0 0 
0 0 0 0 0 0 0 0 0 
0 0 0 0 0 0 0 0 0 
0 0 0 0 0 0 0 0 0 
0 0 0 0 0 0 0 0 0 
0 0 0 0 0 0 0 0 0 
0 0 0 0 0 0 0 0 0 
0 0 0 0 0 0 0 0 0 
0 0 0 0 0 0 0 0 0 
0 0 0 0 0 0 0 0 0 
0 0 0 0 0 0 0 0 0 
0 0 0 0 0 0 0 0 0 

v 3 837 double
-0.81681 -0.0206427 -0.368639 -0.851141 0.226415 -0.297734 -1.007 -0.035907 -1.84013 
-0.968014 -0.0189975 -1.81016 -1.10426 -0.102396 -1.81593 -0.938959 0.00363326 -1.81724 
-0.973977 -0.0620074 -1.77779 -1.31519 -0.353185 -1.97183 -0.964239 0.0279976 -1.78332 
-0.989407 -0.0182311 -1.7731 -0.98199 -0.0516308 -1.76601 -1.2349 0.085979 -1.84084 
-1.02159 0.122106 -1.75831 -1.02291 -0.0295014 -1.78335 -0.924748 -0.032325 -1.73786 
-0.970471 0.0035446 -1.73588 -1.03729 0.0749268 -1.74757 -1.20047 -0.123022 -1.77706 
-0.956478 0.00383404 -1.71207 -1.06749 -0.0186179 -1.73211 -1.06557 0.132866 -1.73673 
-1.07238 0.686387 -1.91921 -1.08427 0.0145501 -1.6352 -0.848479 -0.00715717 -1.64871 
-0.858799 -0.0328401 -1.59939 -1.04286 0.0226398 -1.57206 -1.10236 -0.0375367 -1.60639 
-1.02826 -0.149685 -1.52743 -1.16521 -0.0614088 -1.58584 -1.09996 0.0665071 -1.59507 
-1.11331 -0.0954678 -1.56062 -0.949705 0.0649625 -1.52814 -1.09412 -0.239568 -1.60481 
-1.18677 -0.213474 -1.28786 -0.962506 0.0404147 -1.50262 -1.2027 -0.255341 -1.49868 
-0.936981 0.122637 -1.48329 -1.05961 0.0125691 -1.44923 -0.997688 0.0583755 -1.44119 
-1.11199 0.086525 -1.41667 -1.11591 -0.183349 -1.4264 -1.33894 0.156295 -1.56765 
-1.15484 0.0832023 -1.35844 -1.11923 0.0422427 -1.41581 -0.925117 -0.0359711 -1.35973 
-0.949585 0.0400099 -1.36374 -1.07563 -0.0113252 -1.32558 -1.04158 -0.0208647 -1.35664 
-1.13651 -0.00933753 -1.37373 -1.01886 -0.0585147 -1.28641 -0.984412 -0.108053 -1.36313 
-1.10737 -0.0998359 -1.25125 -0.909522 0.0872093 -1.27073 -1.09179 -0.013483 -1.24475 
-1.06896 0.0278313 -1.45081 -0.914995 0.222767 -1.42611 -0.916449 0.0788902 -1.25416 
-1.07126 0.0467332 -1.31081 -1.11765 0.0252541 -1.22569 -1.08208 0.0744159 -1.23986 
-1.08716 0.0379373 -1.23344 -1.11089 -0.130922 -1.24297 -0.956295 -0.0831273 -1.24155 
-0.929603 -0.0440289 -1.23619 -0.924102 -0.0507259 -1.19397 -0.976943 0.290424 -1.25238 
-1.23432 -0.0694596 -1.20507 -1.01457 -0.0107964 -1.20604 -1.06704 0.0631375 -1.14463 
-1.09844 0.0183118 -1.1431 -1.11162 0.0444094 -1.13891 -1.00808 0.0148176 -1.15216 
-0.934027 -0.0827047 -1.20537 -1.09406 0.0147668 -1.14312 -1.06628 0.0719716 -1.11236 
-1.05797 0.0625611 -1.1137 -0.973923 -0.000797317 -1.12965 -1.09174 0.0550328 -1.11143 
-1.02869 0.0729429 -1.08064 -1.02893 -0.125442 -1.12068 -1.00893 -0.0112386 -1.0775 
-0.900658 0.0044599 -1.06167 -1.06084 -0.0141527 -1.04354 -1.00642 0.0552764 -1.0251 
-0.921749 0.0429546 -1.03446 -0.985938 0.00581331 -1.03024 -1.02866 0.0202123 -1.03506 
-0.997815 0.0273648 -1.07782 -0.976475 0.0339275 -1.11622 -1.15883 0.10086 -1.08742 
-1.24324 -0.0486225 -1.2169 -1.16128 0.128801 -1.06335 -0.981977 -0.0137255 -1.00908 
-1.06831 -0.0185623 -1.05543 -0.925244 -0.0175386 -0.941306 -0.993695 -0.024701 -0.99116 
-0.981044 0.0319056 -1.00269 -1.00614 -0.0220972 -0.982207 -0.943883 0.0467194 -0.995272 
-1.29362 -0.140283 -0.898438 -1.23744 0.213828 -1.04036 -0.969808 -0.0651305 -0.978255 
-0.954358 -0.138168 -0.889938 -0.976175 -0.0118911 -0.946955 -0.921481 0.0210106 -0.884018 
-1.04384 -0.0894427 -0.855081 -0.931554 0.0505228 -0.928196 -1.12226 0.0363547 -0.832879 
-1.056 0.0240223 -0.873498 -0.978839 0.0393741 -0.909467 -1.12209 -0.00457418 -0.844499 
-1.00993 0.0911743 -0.85121 -1.04587 0.0279668 -0.830873 -1.06868 0.016776 -0.870542 
-1.03793 0.0348701 -0.807013 -0.990588 -0.208452 -0.863809 -1.00366 0.0399991 -0.827252 
-1.03136 0.0523968 -0.785038 -1.08179 0.0011668 -0.804237 -1.12596 0.0628153 -0.686192 
-1.11169 -0.00999213 -0.744157 -1.11231 0.0636242 -0.714533 -0.675404 0.0146539 -0.61228 
-1.04363 -0.0841873 -0.751166 -1.11979 -0.0935339 -0.832555 -1.3418 -0.0269543 -0.80675 
-0.983192 0.135115 -0.687643 -0.950107 0.144321 -0.728431 -1.12559 0.117598 -0.706066 
-1.10829 -0.0886196 -0.707279 -1.01666 -0.0134878 -0.673922 -1.11665 -0.00812778 -0.721521 
-1.0128 0.046232 -0.673156 -0.913284 0.158517 -0.628553 -1.03879 -0.0624765 -0.673911 
-1.12468 -0.0779587 -0.469164 -0.959101 -0.0561126 -0.572772 -1.21138 -0.036323 -0.679235 
-1.27205 0.0973979 -0.777269 -1.14581 0.0784046 -0.752597 -0.966904 0.0648283 -0.496725 
-0.884423 0.121763 -0.513214 -0.895521 0.125481 -0.427484 -0.907598 0.112827 -0.453808 
-0.953811 0.0207029 -0.402974 -1.10868 0.0905814 -0.553268 -0.944161 -0.00762944 -0.467062 
-0.812144 0.0284975 -0.410063 -1.01186 0.0326591 -0.490584 -0.967223 0.0347078 -0.401669 
-1.35203 -0.0695925 -0.751027 -1.0767 0.0950708 -0.519936 -0.965959 0.0681005 -0.412739 
-0.86058 0.0141286 -0.340071 -0.9337 -1.89689e-06 -0.376372 -0.879544 -0.00275613 -0.352727 
-0.905718 0.0582856 -0.384418 -0.932568 -0.0270374 -0.3948 -0.91433 -0.0212077 -0.386762 
-0.89712 -0.0227319 -0.379017 -0.930108 -0.0327266 -0.393529 -0.958802 -0.0053217 -0.425378 
-0.954813 0.0805278 -0.431206 -0.884506 0.0752088 -0.334676 -1.1591 -0.0461979 -0.515252 
-1.18028 0.515875 -0.774672 -1.2906 0.0608228 -0.536617 -1.0171 0.0386577 -0.423367 
-1.04544 0.0392313 -0.464758 -1.03623 0.0593855 -0.422465 -0.934003 -0.0580347 -0.38008 
-0.85016 -0.00809726 -0.350469 -0.869226 0.00439218 -0.369305 -0.878085 -0.0957046 -0.366846 
-0.865589 -0.0163656 -0.364586 -0.853952 -0.0363433 -0.366122 -0.848589 -0.0742682 -0.32261 
-0.880984 0.0282811 -0.368163 -0.789688 -0.0527146 -0.425796 -0.971534 -0.026698 -0.383218 
-0.886075 -0.0129752 -0.373749 -0.835086 0.00112357 -0.349078 -0.699346 0.0947216 -0.296273 
-0.908525 0.116687 -0.356421 -0.976978 0.101867 -0.388159 -0.948417 0.11456 -0.37365 
-1.12412 -0.143444 -0.543112 -0.998269 0.0707988 -0.408685 -0.954928 0.0410599 -0.404776 
-0.985002 0.00225372 -0.417078 -0.851175 -0.0473235 -0.35722 -1.20095 0.0234291 -0.0253995 
-0.903456 0.0720281 -0.418899 -0.92909 -0.0804738 -0.38792 -0.886054 0.123288 -0.355682 
-0.840164 0.0925628 -0.349842 -1.04414 -0.00939954 -0.440655 -0.824409 -0.0532076 -0.243413 
-1.0532 -0.0194916 -0.429521 -1.05721 -0.00990111 -0.388116 -0.872825 0.0837415 -0.40919 
-1.12727 -0.18693 -0.507031 -1.0982 -0.0996367 -0.524209 -0.999566 0.0913908 -0.422874 
-0.921381 0.130843 -0.39305 -0.953142 0.21766 -0.406609 -0.975704 0.104675 -0.415478 
-0.934835 0.0177215 -0.392874 -0.940945 0.0394366 -0.401045 -0.935873 0.0246671 -0.391999 
-0.994138 0.0399175 -0.417286 -1.04356 -0.105941 -0.447902 -1.14646 -0.109947 -0.500041 
-1.22568 -0.137608 -0.542631 -0.992023 0.0951756 -0.361732 -0.970202 0.101903 -0.350458 
-1.00278 0.0697288 -0.406194 -0.8739 0.0965273 -0.364501 -0.842308 0.203199 -0.390102 
-0.9927 -0.0226409 -0.415159 -1.44222 0.245947 -0.547027 -1.07635 0.0273603 -0.455488 
-1.09912 -0.0801523 -0.460754 -0.958816 0.0174724 -0.404983 -0.978852 -0.0266527 -0.419297 
-0.978701 0.0260424 -0.410786 -1.01373 0.0107916 -0.417569 -0.965012 0.0116426 -0.342343 
-0.95701 -0.0762381 -0.423121 -0.946083 0.0321114 -0.419308 -1.12573 -0.069154 -0.484839 
-1.12636 -0.0704237 -0.472054 -0.866896 0.0951773 -0.519156 -1.11079 -0.161678 -0.407626 
-0.794222 -0.00567734 -0.236083 -1.00153 0.0955301 -0.43661 -0.993865 0.0240129 -0.419467 
-1.09241 -0.0820839 -0.458581 -0.957404 -0.0361546 -0.400768 -0.864457 -0.144962 -0.373839 
-0.977063 -0.00238959 -0.403464 -1.00893 -0.00627981 -0.432699 -0.859923 -0.0128715 -0.353389 
-0.93767 -0.146283 -0.418289 -1.00391 0.0411054 -0.402289 -0.947834 0.0619156 -0.409408 
-0.937278 -0.0394413 -0.390512 -0.932537 -0.0404888 -0.38869 -1.05251 -0.0399093 -0.449462 
-1.07419 -0.0338697 -0.458172 -0.853845 -0.0425015 -0.537501 -0.964075 0.0213855 -0.390398 
-0.943097 -0.0319106 -0.385205 -0.959809 -0.0233023 -0.411314 -0.738393 0.0327221 -0.312325 
-0.990702 -0.00809203 -0.415306 -0.95139 0.0379438 -0.400896 -0.964856 -0.0142947 -0.402762 
-0.960661 0.00726239 -0.397465 -0.996979 -0.0200683 -0.420442 -1.16064 0.0594404 -0.450293 
-1.11954 0.00455733 -0.432292 -1.04675 -0.000432921 -0.440847 -0.672014 -0.032071 -0.283324 
-0.817845 0.0159145 -0.347562 -1.00241 -0.130076 -0.388753 -0.956943 0.05667 -0.397704 
-0.918846 0.0973465 -0.378998 -1.11905 -0.0814896 -0.485204 -1.06098 -0.0616087 -0.449057 
-1.08839 0.167945 -0.465301 -1.03853 -0.0312554 -0.407123 -0.919986 0.0627063 -0.395783 
-0.862067 -0.00929467 -0.322909 -0.866574 0.104848 -0.354039 -0.780242 0.0764871 -0.330743 
-0.850289 0.0700401 -0.381271 -0.799286 -0.00760409 -0.335314 -0.932098 0.0194479 -0.389525 
-0.918892 -0.0105478 -0.387026 -0.980458 -0.139881 -0.425319 -0.9284 0.143907 -0.40183 
-1.1461 -0.205168 -0.546077 -0.917755 0.451148 -0.534974 -1.12547 0.0671236 -0.456667 
-0.998949 -0.0237773 -0.372841 -0.846583 -0.00329955 -0.379245 -0.88672 0.0419378 -0.385093 
-0.988741 0.0377106 -0.413238 -0.702884 0.0168259 -0.30052 -0.763859 0.0810225 -0.316806 
-0.926305 0.00620116 -0.394418 -0.935049 -0.0140969 -0.390266 -0.958489 -0.125184 -0.420344 
-1.186 -0.0221492 -0.493536 -0.957515 -0.0607508 -0.448303 -0.965425 0.0536676 -0.374192 
-1.0374 0.185523 -0.444755 -0.882465 0.0911956 -0.211112 -1.01067 0.0503176 -0.275603 
-0.843136 0.0562195 -0.438943 -0.819474 -0.0394835 -0.352161 -0.93169 0.0944784 -0.395805 
-0.846946 -0.0214786 -0.364167 -0.870958 0.0294944 -0.356237 -0.982731 0.1969 -0.467365 