# vtk DataFile Version 4.0
Generated by LIGGGHTS
ASCII
DATASET POLYDATA
POINTS 844 float
-0.218454 0.0612427 -0.182104 -0.202498 -0.00714032 -0.191289 -0.480852 -0.0078491 -0.395022 
-0.44457 -0.00582108 -0.394711 -0.486275 -0.0354807 -0.390641 -0.462111 -0.0218889 -0.389674 
-0.439966 0.0163469 -0.392464 -0.467978 0.0244654 -0.391709 -0.489935 0.0301666 -0.391463 
-0.468847 0.00571343 -0.387149 -0.465616 0.00203806 -0.385385 -0.465225 -0.00324345 -0.380349 
-0.44756 0.00536609 -0.380584 -0.469488 -0.000412351 -0.377256 -0.442634 -0.0027921 -0.377367 
-0.45669 -0.0122314 -0.372365 -0.456366 0.00241652 -0.373323 -0.450446 0.00366345 -0.374285 
-0.4222 0.0137764 -0.368439 -0.448309 0.0222223 -0.369916 -0.428187 0.00140823 -0.367231 
-0.445358 0.00665776 -0.364083 -0.454911 -0.0140253 -0.361593 -0.438084 -0.0030685 -0.360445 
-0.456842 -0.00301842 -0.361639 -0.436388 0.0256372 -0.362306 -0.464292 0.0518653 -0.362477 
-0.448673 -0.00781808 -0.357402 -0.448668 -0.0027541 -0.35757 -0.433575 0.0128089 -0.35784 
-0.439017 0.0137263 -0.358062 -0.455814 -0.0108469 -0.355831 -0.444478 -0.000194234 -0.352416 
-0.429693 0.0115715 -0.350524 -0.438391 0.021087 -0.350248 -0.423621 0.0232364 -0.352291 
-0.471187 0.0290025 -0.352438 -0.436335 -0.00534911 -0.343227 -0.442354 -0.00332911 -0.343619 
-0.431848 0.0100209 -0.344186 -0.418572 0.00949779 -0.345576 -0.43336 -0.00511324 -0.338643 
-0.4327 -0.00118791 -0.338269 -0.438617 0.00197751 -0.341315 -0.43639 0.0174845 -0.341292 
-0.429374 0.0266857 -0.339978 -0.436664 -0.0225811 -0.335428 -0.428617 0.00930456 -0.336242 
-0.473496 0.0555145 -0.335459 -0.426765 -0.0147873 -0.332472 -0.423174 0.0136079 -0.333076 
-0.422443 0.0185368 -0.330744 -0.416869 0.0202933 -0.331301 -0.417298 0.0262465 -0.331326 
-0.443729 0.0392393 -0.331329 -0.425476 -0.0161958 -0.328401 -0.419385 -0.00266555 -0.326957 
-0.410657 0.00536724 -0.327078 -0.417331 0.00875153 -0.327409 -0.422103 0.0149939 -0.327195 
-0.428587 0.0220694 -0.327149 -0.431804 -0.02171 -0.324144 -0.416064 -0.0189697 -0.323771 
-0.412966 0.00128755 -0.321444 -0.408836 0.00461949 -0.320133 -0.412608 0.00810653 -0.319897 
-0.407228 0.00963853 -0.320951 -0.429116 -0.016711 -0.317626 -0.406929 -0.00269261 -0.317543 
-0.431967 0.0092553 -0.316494 -0.401142 0.00623003 -0.315295 -0.407293 -0.0293469 -0.310496 
-0.403371 -0.0117512 -0.311991 -0.399494 -0.00477349 -0.308657 -0.397786 -0.0015689 -0.310075 
-0.409175 -0.00542665 -0.306211 -0.404312 -0.00591053 -0.304934 -0.408635 -0.00812682 -0.302979 
-0.40198 -0.00634797 -0.301874 -0.398229 0.00581799 -0.30236 -0.394347 0.00675563 -0.304606 
-0.412653 0.0138714 -0.304173 -0.403064 -0.0238456 -0.299536 -0.402516 -0.0187209 -0.298807 
-0.401023 -0.00166925 -0.29934 -0.397055 -0.0226486 -0.296882 -0.396325 -0.0185001 -0.294447 
-0.399048 -0.0168756 -0.296478 -0.395132 -0.0161362 -0.29027 -0.402407 -0.00628364 -0.291401 
-0.389985 0.00108448 -0.29135 -0.396908 0.0216862 -0.293589 -0.408943 0.0280966 -0.290791 
-0.390997 -0.00733731 -0.287335 -0.378235 -0.00408895 -0.286536 -0.382953 -0.00680183 -0.285137 
-0.388881 -0.00130135 -0.284777 -0.367461 0.001712 -0.283315 -0.386476 0.00519992 -0.284129 
-0.396421 -0.0368154 -0.282522 -0.383684 -0.0226002 -0.280724 -0.375447 -0.00772649 -0.279834 
-0.382091 0.0128006 -0.281195 -0.382876 0.0196856 -0.282372 -0.409579 -0.0473238 -0.277629 
-0.384523 0.0173815 -0.277981 -0.392634 -0.0446939 -0.27528 -0.395979 -0.0138209 -0.273607 
-0.370903 0.00027156 -0.274096 -0.37279 -0.0237252 -0.269778 -0.382651 -0.0203819 -0.268529 
-0.364826 -0.0194437 -0.269161 -0.372477 -0.00715791 -0.270344 -0.364648 -0.0205293 -0.265497 
-0.362512 -0.0109702 -0.264756 -0.35877 -0.0118685 -0.263554 -0.360701 0.00664954 -0.266054 
-0.35681 0.0198571 -0.265856 -0.36506 0.0264536 -0.26545 -0.358472 -0.0165939 -0.262877 
-0.359933 -0.00787456 -0.261795 -0.354026 0.0011489 -0.260013 -0.357582 0.0161561 -0.260104 
-0.366802 0.0278425 -0.262311 -0.367442 0.0309403 -0.262309 -0.368217 -0.0313272 -0.258993 
-0.356651 -0.0145322 -0.25922 -0.351723 -0.0128057 -0.256548 -0.355503 -0.0094244 -0.259264 
-0.3531 -0.00625478 -0.258288 -0.349257 -0.00276818 -0.257439 -0.347052 0.00100927 -0.255572 
-0.348617 0.00310933 -0.257047 -0.347161 0.00609247 -0.255876 -0.351354 0.0110193 -0.257182 
-0.354995 0.0238123 -0.259224 -0.355556 0.0285073 -0.256933 -0.348326 -0.0172387 -0.254575 
-0.346016 -0.0148368 -0.252274 -0.345308 -0.0119388 -0.2533 -0.344859 -0.00841767 -0.253927 
-0.342201 -0.00779965 -0.252176 -0.341503 -0.00367824 -0.252443 -0.341477 -0.000460965 -0.251642 
-0.344461 0.00176183 -0.253896 -0.344061 0.00492098 -0.255978 -0.342456 0.0130018 -0.252594 
-0.354125 0.0181589 -0.255125 -0.370233 0.0434028 -0.256514 -0.342312 -0.0119291 -0.250971 
-0.340653 -0.0102775 -0.24832 -0.338962 -0.00806606 -0.249992 -0.33552 -0.00763399 -0.247965 
-0.338565 -0.00498746 -0.250883 -0.3349 -0.00439621 -0.248103 -0.33878 -0.00246801 -0.248611 
-0.336745 0.00205477 -0.249902 -0.344147 0.00489104 -0.251091 -0.336432 0.0103867 -0.248807 
-0.334622 0.0131455 -0.247647 -0.337121 0.0169184 -0.249319 -0.34455 0.0196409 -0.250983 
-0.340896 0.0175266 -0.248086 -0.352184 0.0215834 -0.250337 -0.346142 0.0234089 -0.251789 
-0.338825 -0.0121125 -0.245706 -0.334294 -0.0105675 -0.247224 -0.350429 0.00394416 -0.247397 
-0.332933 0.00210247 -0.246093 -0.329627 -0.000403283 -0.245192 -0.329184 0.00305653 -0.245026 
-0.336251 0.0058431 -0.247612 -0.330795 0.00550826 -0.245731 -0.33179 0.00829326 -0.246387 
-0.340578 0.0191839 -0.245479 -0.336134 0.0179267 -0.245321 -0.341424 0.0215732 -0.247441 
-0.341101 0.0242096 -0.245937 -0.354686 -0.0445937 -0.244613 -0.32752 -0.0129951 -0.242475 
-0.319536 -0.00940581 -0.240314 -0.327199 -0.0040461 -0.244064 -0.325311 -0.00625446 -0.242906 
-0.322624 -0.0071821 -0.241618 -0.326675 -0.000673786 -0.243912 -0.32193 -0.00298416 -0.241705 
-0.346549 0.00138689 -0.242631 -0.32382 0.000903347 -0.241561 -0.326588 0.00519157 -0.242543 
-0.322897 0.00659663 -0.241881 -0.32034 0.00525193 -0.240888 -0.325207 0.00895267 -0.242757 
-0.320951 0.00862149 -0.240862 -0.331467 0.0111781 -0.243137 -0.320756 0.0115934 -0.240649 
-0.333473 0.0217271 -0.243405 -0.340463 0.0345774 -0.243097 -0.33812 0.0384101 -0.241633 
-0.332711 -0.0393749 -0.238549 -0.325363 -0.020293 -0.239965 -0.316702 -0.0198764 -0.237671 
-0.314577 -0.0053048 -0.237517 -0.318759 -0.00221645 -0.239392 -0.317468 0.0101534 -0.239368 
-0.314467 0.00976204 -0.238129 -0.318074 0.0140692 -0.238144 -0.322514 0.0180286 -0.239228 
-0.322562 0.0287035 -0.237838 -0.329143 0.0359408 -0.238136 -0.317021 -0.0285687 -0.235534 
-0.313195 -0.0212202 -0.236017 -0.305563 -0.00585172 -0.234778 -0.303136 -0.00408903 -0.233817 
-0.309223 -0.00127832 -0.236484 -0.306873 -0.00289071 -0.235436 -0.306331 7.36997e-05 -0.235085 
-0.309949 0.00531935 -0.236507 -0.306911 0.0175157 -0.233909 -0.312227 0.0229806 -0.233965 
-0.300324 -0.0130075 -0.231927 -0.302022 -0.00888921 -0.232004 -0.302966 0.00831624 -0.232288 
-0.2994 0.021039 -0.230089 -0.300479 0.0240377 -0.229954 -0.303381 0.0247125 -0.231035 
-0.318143 0.0389204 -0.232521 -0.322454 0.0424784 -0.231144 -0.297169 -0.0238337 -0.228644 
-0.296953 -0.0208776 -0.229198 -0.297067 -0.0168299 -0.228977 -0.288755 -0.0122785 -0.227143 
-0.28954 -0.00442422 -0.22784 -0.290845 0.00367681 -0.228556 -0.291337 0.0108997 -0.227216 
-0.297324 0.0168719 -0.228936 -0.289095 0.016116 -0.226754 -0.302387 0.0353811 -0.227396 
-0.296874 -0.0307109 -0.225493 -0.2941 -0.0275537 -0.22646 -0.285549 -0.0230448 -0.224097 
-0.278535 -0.00904987 -0.223195 -0.275983 -0.00669016 -0.222272 -0.285728 0.0109326 -0.225932 
-0.283814 0.020712 -0.223706 -0.282418 -0.0329921 -0.220185 -0.288649 -0.028928 -0.222716 
-0.278235 -0.0252811 -0.220628 -0.281297 -0.0174117 -0.222284 -0.276693 -0.0132287 -0.220881 
-0.273352 -0.00946386 -0.220976 -0.27364 -0.00499894 -0.221345 -0.269845 -0.00649587 -0.219685 
-0.270528 -0.00346858 -0.220091 -0.273087 0.00374577 -0.219098 -0.278178 0.0085089 -0.221862 
-0.271524 0.00842999 -0.22019 -0.277464 0.01286 -0.222407 -0.283858 0.0313294 -0.221164 
-0.279783 0.0299628 -0.21989 -0.266292 -0.00657658 -0.218181 -0.262774 -0.00332653 -0.216823 
-0.267446 -0.00240212 -0.217742 -0.258356 0.000991061 -0.214956 -0.26802 0.00440999 -0.218907 
-0.272593 0.0133174 -0.218743 -0.264761 0.0142832 -0.215705 -0.27668 0.0227283 -0.219288 
-0.270979 -0.0382278 -0.213667 -0.255685 -0.0182037 -0.212532 -0.255642 -0.0152252 -0.212886 
-0.253705 -0.0129657 -0.212341 -0.265628 -0.00736104 -0.213577 -0.253776 -0.00347223 -0.213028 
-0.253476 0.000605097 -0.212938 -0.256071 0.00953397 -0.213641 -0.256873 0.0133036 -0.212536 
-0.257496 0.0182769 -0.213137 -0.255763 -0.0091228 -0.212661 -0.249715 -0.00897115 -0.211059 
-0.249626 -0.00509985 -0.211224 -0.26328 0.00535994 -0.208262 -0.253755 0.00483755 -0.211796 
-0.244106 -0.0247486 -0.205417 -0.243409 -0.0128621 -0.208039 -0.243752 -0.00933816 -0.208506 
-0.239774 -0.0105229 -0.205573 -0.254449 -0.00629836 -0.207472 -0.248132 -0.00385391 -0.207754 
-0.240873 -0.0046729 -0.207545 -0.237498 -0.00567713 -0.204864 -0.24345 -0.00132862 -0.207668 
-0.238951 -0.000540955 -0.20536 -0.236499 0.00262122 -0.20565 -0.242455 0.00440051 -0.207038 
-0.240217 0.00821809 -0.207032 -0.235733 0.00971698 -0.205113 -0.244082 0.0137146 -0.208172 
-0.242961 0.0169022 -0.207238 -0.269131 0.0513223 -0.207078 -0.236797 -0.015145 -0.203887 
-0.230287 -0.0103089 -0.20109 -0.233812 -0.0103522 -0.204081 -0.232564 -0.00616007 -0.202791 
-0.227563 -0.00643766 -0.201791 -0.232343 -0.000148475 -0.204002 -0.228758 -0.00234839 -0.201437 
-0.226181 0.000698749 -0.201276 -0.230487 0.00649076 -0.203034 -0.230097 0.00993295 -0.20276 
-0.233778 0.0233936 -0.202516 -0.254581 -0.0504798 -0.200883 -0.232876 -0.0281195 -0.200956 
-0.231297 -0.0206198 -0.200741 -0.22733 -0.020219 -0.199307 -0.225335 -0.00845948 -0.200444 
-0.223581 -0.00523844 -0.198296 -0.290492 0.0010596 -0.196198 -0.224756 -0.00207195 -0.200801 
[...]
POINT_DATA 844
FIELD FieldData 7
id 1 844 int
836 816 461 462 449 467 427 540 561 
387 483 343 428 464 465 430 513 458 
353 494 611 471 478 472 469 473 436 
484 434 502 459 460 480 357 431 550 
526 351 408 440 390 476 422 433 453 
397 568 533 596 418 416 417 509 525 
573 479 435 451 466 368 537 501 363 
375 599 450 340 630 500 615 364 412 
455 554 505 558 492 582 645 541 507 
583 560 522 482 508 543 564 619 603 
530 578 719 498 493 361 497 366 574 
520 420 515 572 566 676 534 677 512 
445 648 662 518 559 581 546 553 538 
656 516 489 571 444 548 683 620 702 
511 527 487 495 531 454 556 529 549 
635 809 565 519 576 514 545 503 551 
524 528 588 474 586 602 563 542 594 
589 506 491 488 562 532 591 557 521 
609 624 517 608 604 486 715 555 577 
485 698 606 655 575 629 685 675 650 
627 614 595 621 661 711 726 587 610 
552 580 658 674 598 633 600 742 590 
775 547 628 613 585 654 680 625 652 
692 734 647 699 707 607 570 632 631 
671 681 536 682 612 716 673 641 644 
725 690 592 263 637 694 812 617 640 
597 601 686 623 622 712 736 666 634 
710 646 639 735 727 638 567 669 616 
643 691 636 544 653 774 697 657 642 
649 721 539 688 704 703 667 744 713 
670 665 700 569 668 701 593 739 660 
784 626 651 664 684 720 718 678 740 
760 755 663 782 724 717 679 672 800 
579 822 730 729 776 794 827 757 741 
696 747 732 758 714 928 754 706 814 
756 898 709 777 769 810 750 753 695 
790 748 801 867 789 826 788 708 846 
903 828 838 765 705 738 823 693 875 
764 766 792 752 805 820 795 839 781 
737 723 780 808 819 1029 996 1031 1023 
1095 837 999 733 722 803 771 833 1083 
961 866 687 728 856 773 743 845 849 
797 798 942 853 778 762 783 751 818 
772 785 840 759 888 882 843 731 889 
915 848 958 746 787 689 874 832 813 
854 768 817 900 862 767 858 659 831 
911 908 829 791 871 811 872 891 763 
830 799 806 852 807 916 841 883 956 
906 863 922 873 851 824 605 870 796 
847 892 909 761 815 786 897 904 943 
821 804 864 899 844 859 957 902 931 
954 918 868 749 793 881 907 857 919 
880 855 878 941 887 913 876 940 944 
953 935 930 923 945 894 879 914 921 
912 910 925 964 896 924 955 901 989 
939 890 884 770 835 842 1019 865 861 
860 965 825 1004 885 946 920 969 779 
834 933 959 934 1009 949 917 950 850 
905 1016 1006 970 936 938 893 981 1027 
971 895 986 926 1003 973 972 947 975 
960 987 991 980 979 951 1018 963 984 
1036 877 869 1052 1025 966 1010 1020 997 
1017 1040 1011 1000 1061 974 1014 1001 886 
948 1021 1026 1028 1034 994 962 976 1071 
995 1022 932 990 977 983 985 1015 1041 
1049 1007 1030 1032 927 988 1012 1048 967 
1046 1013 1037 1084 1271 1267 1042 1033 1266 
998 1270 1269 1066 1076 1265 1276 1085 937 
1075 1064 1081 1119 1098 1038 1072 993 1100 
1008 1055 1103 1068 1087 1056 1002 982 952 
929 992 1079 1073 1114 1113 1063 1078 1070 
1047 1054 1094 1074 1057 1077 1065 1092 1067 
1035 1106 1104 1039 1005 1107 1109 968 978 
1090 1060 1044 1101 1069 1105 1045 1096 1024 
1053 1110 1116 1123 1062 1058 1137 1086 1089 
1131 1135 1043 1115 1059 1128 1124 1130 1050 
1099 1051 1127 802 1126 1097 1108 1118 1120 
1111 1088 1082 1080 1129 1133 1093 1102 1132 
1112 1091 1117 1125 1121 1122 1136 1134 1144 
1149 1141 1142 1140 1143 1148 1138 1145 1146 
1139 1147 745 1150 1156 1163 1157 1154 1160 
1161 1152 1153 1162 1151 1155 1158 1159 1169 
1170 1174 1168 1173 1167 1165 1164 1166 1171 
1172 1175 1185 1184 1179 1187 1176 1186 1183 
1182 1180 1181 1188 1177 1194 1178 1199 1193 
1189 1198 1192 1197 1196 1201 1195 1200 1210 
1190 1191 1205 1204 1209 1213 1202 1206 1212 
1214 1208 1207 1211 1203 1218 1221 1219 1220 
1225 1223 1216 1224 1222 1217 1215 1236 1226 
1229 1232 1234 1228 1231 1235 1237 1227 1239 
1238 1230 1233 1249 1251 1242 1245 1250 1248 
1243 1247 1244 1246 1241 1240 1252 1260 1256 
1254 1262 1257 1264 1261 1259 1263 1253 1258 
1273 1274 1277 1255 1268 1275 1272 
type 1 844 int
1 1 1 1 1 1 1 1 1 
1 1 1 1 1 1 1 1 1 
1 1 1 1 1 1 1 1 1 
1 1 1 1 1 1 1 1 1 
1 1 1 1 1 1 1 1 1 
1 1 1 1 1 1 1 1 1 
1 1 1 1 1 1 1 1 1 
1 1 1 1 1 1 1 1 1 
1 1 1 1 1 1 1 1 1 
1 1 1 1 1 1 1 1 1 
1 1 1 1 1 1 1 1 1 
1 1 1 1 1 1 1 1 1 
1 1 1 1 1 1 1 1 1 
1 1 1 1 1 1 1 1 1 
1 1 1 1 1 1 1 1 1 
1 1 1 1 1 1 1 1 1 
1 1 1 1 1 1 1 1 1 
1 1 1 1 1 1 1 1 1 
1 1 1 1 1 1 1 1 1 
1 1 1 1 1 1 1 1 1 
1 1 1 1 1 1 1 1 1 
1 1 1 1 1 1 1 1 1 
1 1 1 1 1 1 1 1 1 
1 1 1 1 1 1 1 1 1 
1 1 1 1 1 1 1 1 1 
1 1 1 1 1 1 1 1 1 
1 1 1 1 1 1 1 1 1 
1 1 1 1 1 1 1 1 1 
1 1 1 1 1 1 1 1 1 
1 1 1 1 1 1 1 1 1 
1 1 1 1 1 1 1 1 1 
1 1 1 1 1 1 1 1 1 
1 1 1 1 1 1 1 1 1 
1 1 1 1 1 1 1 1 1 
1 1 1 1 1 1 1 1 1 
1 1 1 1 1 1 1 1 1 
1 1 1 1 1 1 1 1 1 
1 1 1 1 1 1 1 1 1 
1 1 1 1 1 1 1 1 1 
1 1 1 1 1 1 1 1 1 
1 1 1 1 1 1 1 1 1 
1 1 1 1 1 1 1 1 1 
1 1 1 1 1 1 1 1 1 
1 1 1 1 1 1 1 1 1 
1 1 1 1 1 1 1 1 1 
1 1 1 1 1 1 1 1 1 
1 1 1 1 1 1 1 1 1 
1 1 1 1 1 1 1 1 1 
1 1 1 1 1 1 1 1 1 
1 1 1 1 1 1 1 1 1 
1 1 1 1 1 1 1 1 1 
1 1 1 1 1 1 1 1 1 
1 1 1 1 1 1 1 1 1 
1 1 1 1 1 1 1 1 1 
1 1 1 1 1 1 1 1 1 
1 1 1 1 1 1 1 1 1 
1 1 1 1 1 1 1 1 1 
1 1 1 1 1 1 1 1 1 
1 1 1 1 1 1 1 1 1 
1 1 1 1 1 1 1 1 1 
1 1 1 1 1 1 1 1 1 
1 1 1 1 1 1 1 1 1 
1 1 1 1 1 1 1 1 1 
1 1 1 1 1 1 1 1 1 
1 1 1 1 1 1 1 1 1 
1 1 1 1 1 1 1 1 1 
1 1 1 1 1 1 1 1 1 
1 1 1 1 1 1 1 1 1 
1 1 1 1 1 1 1 1 1 
1 1 1 1 1 1 1 1 1 
1 1 1 1 1 1 1 1 1 
1 1 1 1 1 1 1 1 1 
1 1 1 1 1 1 1 1 1 
1 1 1 1 1 1 1 1 1 
1 1 1 1 1 1 1 1 1 
1 1 1 1 1 1 1 1 1 
1 1 1 1 1 1 1 1 1 
1 1 1 1 1 1 1 1 1 
1 1 1 1 1 1 1 1 1 
1 1 1 1 1 1 1 1 1 
1 1 1 1 1 1 1 1 1 
1 1 1 1 1 1 1 1 1 
1 1 1 1 1 1 1 1 1 
1 1 1 1 1 1 1 1 1 
1 1 1 1 1 1 1 1 1 
1 1 1 1 1 1 1 1 1 
1 1 1 1 1 1 1 1 1 
1 1 1 1 1 1 1 1 1 
1 1 1 1 1 1 1 1 1 
1 1 1 1 1 1 1 1 1 
1 1 1 1 1 1 1 1 1 
1 1 1 1 1 1 1 1 1 
1 1 1 1 1 1 1 1 1 
1 1 1 1 1 1 1 
i 3 844 int
0 0 0 0 0 0 0 0 0 
0 0 0 0 0 0 0 0 0 
0 0 0 0 0 0 0 0 0 
0 0 0 0 0 0 0 0 0 
0 0 0 0 0 0 0 0 0 
0 0 0 0 0 0 0 0 0 
0 0 0 0 0 0 0 0 0 
0 0 0 0 0 0 0 0 0 
0 0 0 0 0 0 0 0 0 
0 0 0 0 0 0 0 0 0 
0 0 0 0 0 0 0 0 0 
0 0 0 0 0 0 0 0 0 
0 0 0 0 0 0 0 0 0 
0 0 0 0 0 0 0 0 0 
0 0 0 0 0 0 0 0 0 
0 0 0 0 0 0 0 0 0 
0 0 0 0 0 0 0 0 0 
0 0 0 0 0 0 0 0 0 
0 0 0 0 0 0 0 0 0 
0 0 0 0 0 0 0 0 0 
0 0 0 0 0 0 0 0 0 
0 0 0 0 0 0 0 0 0 
0 0 0 0 0 0 0 0 0 
0 0 0 0 0 0 0 0 0 
0 0 0 0 0 0 0 0 0 
0 0 0 0 0 0 0 0 0 
0 0 0 0 0 0 0 0 0 
0 0 0 0 0 0 0 0 0 
0 0 0 0 0 0 0 0 0 
0 0 0 0 0 0 0 0 0 
0 0 0 0 0 0 0 0 0 
0 0 0 0 0 0 0 0 0 
0 0 0 0 0 0 0 0 0 
0 0 0 0 0 0 0 0 0 
0 0 0 0 0 0 0 0 0 
0 0 0 0 0 0 0 0 0 
0 0 0 0 0 0 0 0 0 
0 0 0 0 0 0 0 0 0 
0 0 0 0 0 0 0 0 0 
0 0 0 0 0 0 0 0 0 
0 0 0 0 0 0 0 0 0 
0 0 0 0 0 0 0 0 0 
0 0 0 0 0 0 0 0 0 
0 0 0 0 0 0 0 0 0 
0 0 0 0 0 0 0 0 0 
0 0 0 0 0 0 0 0 0 
0 0 0 0 0 0 0 0 0 
0 0 0 0 0 0 0 0 0 
0 0 0 0 0 0 0 0 0 
0 0 0 0 0 0 0 0 0 
0 0 0 0 0 0 0 0 0 
0 0 0 0 0 0 0 0 0 
0 0 0 0 0 0 0 0 0 
0 0 0 0 0 0 0 0 0 
0 0 0 0 0 0 0 0 0 
0 0 0 0 0 0 0 0 0 
0 0 0 0 0 0 0 0 0 
0 0 0 0 0 0 0 0 0 
0 0 0 0 0 0 0 0 0 
0 0 0 0 0 0 0 0 0 
0 0 0 0 0 0 0 0 0 
0 0 0 0 0 0 0 0 0 
0 0 0 0 0 0 0 0 0 
0 0 0 0 0 0 0 0 0 
0 0 0 0 0 0 0 0 0 
0 0 0 0 0 0 0 0 0 
0 0 0 0 0 0 0 0 0 
0 0 0 0 0 0 0 0 0 
0 0 0 0 0 0 0 0 0 
0 0 0 0 0 0 0 0 0 
0 0 0 0 0 0 0 0 0 
0 0 0 0 0 0 0 0 0 
0 0 0 0 0 0 0 0 0 
0 0 0 0 0 0 0 0 0 
0 0 0 0 0 0 0 0 0 
0 0 0 0 0 0 0 0 0 
0 0 0 0 0 0 0 0 0 
0 0 0 0 0 0 0 0 0 
0 0 0 0 0 0 0 0 0 
0 0 0 0 0 0 0 0 0 
0 0 0 0 0 0 0 0 0 
0 0 0 0 0 0 0 0 0 
0 0 0 0 0 0 0 0 0 
0 0 0 0 0 0 0 0 0 
0 0 0 0 0 0 0 0 0 
0 0 0 0 0 0 0 0 0 
0 0 0 0 0 0 0 0 0 
0 0 0 0 0 0 0 0 0 
0 0 0 0 0 0 0 0 0 
0 0 0 0 0 0 0 0 0 
0 0 0 0 0 0 0 0 0 
0 0 0 0 0 0 0 0 0 
0 0 0 0 0 0 0 0 0 
0 0 0 0 0 0 0 0 0 
0 0 0 0 0 0 0 0 0 
0 0 0 0 0 0 0 0 0 
0 0 0 0 0 0 0 0 0 
0 0 0 0 0 0 0 0 0 
0 0 0 0 0 0 0 0 0 
0 0 0 0 0 0 0 0 0 
0 0 0 0 0 0 0 0 0 
0 0 0 0 0 0 0 0 0 
0 0 0 0 0 0 0 0 0 
0 0 0 0 0 0 0 0 0 
0 0 0 0 0 0 0 0 0 
0 0 0 0 0 0 0 0 0 
0 0 0 0 0 0 0 0 0 
0 0 0 0 0 0 0 0 0 
0 0 0 0 0 0 0 0 0 
0 0 0 0 0 0 0 0 0 
0 0 0 0 0 0 0 0 0 
0 0 0 0 0 0 0 0 0 
0 0 0 0 0 0 0 0 0 
0 0 0 0 0 0 0 0 0 
0 0 0 0 0 0 0 0 0 
0 0 0 0 0 0 0 0 0 
0 0 0 0 0 0 0 0 0 
0 0 0 0 0 0 0 0 0 
0 0 0 0 0 0 0 0 0 
0 0 0 0 0 0 0 0 0 
0 0 0 0 0 0 0 0 0 
0 0 0 0 0 0 0 0 0 
0 0 0 0 0 0 0 0 0 
0 0 0 0 0 0 0 0 0 
0 0 0 0 0 0 0 0 0 
0 0 0 0 0 0 0 0 0 
0 0 0 0 0 0 0 0 0 
0 0 0 0 0 0 0 0 0 
0 0 0 0 0 0 0 0 0 
0 0 0 0 0 0 0 0 0 
0 0 0 0 0 0 0 0 0 
0 0 0 0 0 0 0 0 0 
0 0 0 0 0 0 0 0 0 
0 0 0 0 0 0 0 0 0 
0 0 0 0 0 0 0 0 0 
0 0 0 0 0 0 0 0 0 
0 0 0 0 0 0 0 0 0 
0 0 0 0 0 0 0 0 0 
0 0 0 0 0 0 0 0 0 
0 0 0 0 0 0 0 0 0 
0 0 0 0 0 0 0 0 0 
0 0 0 0 0 0 0 0 0 
0 0 0 0 0 0 0 0 0 
0 0 0 0 0 0 0 0 0 
0 0 0 0 0 0 0 0 0 
0 0 0 0 0 0 0 0 0 
0 0 0 0 0 0 0 0 0 
0 0 0 0 0 0 0 0 0 
0 0 0 0 0 0 0 0 0 
0 0 0 0 0 0 0 0 0 
0 0 0 0 0 0 0 0 0 
0 0 0 0 0 0 0 0 0 
0 0 0 0 0 0 0 0 0 
0 0 0 0 0 0 0 0 0 
0 0 0 0 0 0 0 0 0 
0 0 0 0 0 0 0 0 0 
0 0 0 0 0 0 0 0 0 
0 0 0 0 0 0 0 0 0 
0 0 0 0 0 0 0 0 0 
0 0 0 0 0 0 0 0 0 
0 0 0 0 0 0 0 0 0 
0 0 0 0 0 0 0 0 0 
0 0 0 0 0 0 0 0 0 
0 0 0 0 0 0 0 0 0 
0 0 0 0 0 0 0 0 0 
0 0 0 0 0 0 0 0 0 
0 0 0 0 0 0 0 0 0 
0 0 0 0 0 0 0 0 0 
0 0 0 0 0 0 0 0 0 
0 0 0 0 0 0 0 0 0 
0 0 0 0 0 0 0 0 0 
0 0 0 0 0 0 0 0 0 
0 0 0 0 0 0 0 0 0 
0 0 0 0 0 0 0 0 0 
0 0 0 0 0 0 0 0 0 
0 0 0 0 0 0 0 0 0 
0 0 0 0 0 0 0 0 0 
0 0 0 0 0 0 0 0 0 
0 0 0 0 0 0 0 0 0 
0 0 0 0 0 0 0 0 0 
0 0 0 0 0 0 0 0 0 
0 0 0 0 0 0 0 0 0 
0 0 0 0 0 0 0 0 0 
0 0 0 0 0 0 0 0 0 
0 0 0 0 0 0 0 0 0 
0 0 0 0 0 0 0 0 0 
0 0 0 0 0 0 0 0 0 
0 0 0 0 0 0 0 0 0 
0 0 0 0 0 0 0 0 0 
0 0 0 0 0 0 0 0 0 
0 0 0 0 0 0 0 0 0 
0 0 0 0 0 0 0 0 0 
0 0 0 0 0 0 0 0 0 
0 0 0 0 0 0 0 0 0 
0 0 0 0 0 0 0 0 0 
0 0 0 0 0 0 0 0 0 
0 0 0 0 0 0 0 0 0 
0 0 0 0 0 0 0 0 0 
0 0 0 0 0 0 0 0 0 
0 0 0 0 0 0 0 0 0 
0 0 0 0 0 0 0 0 0 
0 0 0 0 0 0 0 0 0 
0 0 0 0 0 0 0 0 0 
0 0 0 0 0 0 0 0 0 
0 0 0 0 0 0 0 0 0 
0 0 0 0 0 0 0 0 0 
0 0 0 0 0 0 0 0 0 
0 0 0 0 0 0 0 0 0 
0 0 0 0 0 0 0 0 0 
0 0 0 0 0 0 0 0 0 
0 0 0 0 0 0 0 0 0 
0 0 0 0 0 0 0 0 0 
0 0 0 0 0 0 0 0 0 
0 0 0 0 0 0 0 0 0 
0 0 0 0 0 0 0 0 0 
0 0 0 0 0 0 0 0 0 
0 0 0 0 0 0 0 0 0 
0 0 0 0 0 0 0 0 0 
0 0 0 0 0 0 0 0 0 
0 0 0 0 0 0 0 0 0 
0 0 0 0 0 0 0 0 0 
0 0 0 0 0 0 0 0 0 
0 0 0 0 0 0 0 0 0 
0 0 0 0 0 0 0 0 0 
0 0 0 0 0 0 0 0 0 
0 0 0 0 0 0 0 0 0 
0 0 0 0 0 0 0 0 0 
0 0 0 0 0 0 0 0 0 
0 0 0 0 0 0 0 0 0 
0 0 0 0 0 0 0 0 0 
0 0 0 0 0 0 0 0 0 
0 0 0 0 0 0 0 0 0 
0 0 0 0 0 0 0 0 0 
0 0 0 0 0 0 0 0 0 
0 0 0 0 0 0 0 0 0 
0 0 0 0 0 0 0 0 0 
0 0 0 0 0 0 0 0 0 
0 0 0 0 0 0 0 0 0 
0 0 0 0 0 0 0 0 0 
0 0 0 0 0 0 0 0 0 
0 0 0 0 0 0 0 0 0 
0 0 0 0 0 0 0 0 0 
0 0 0 0 0 0 0 0 0 
0 0 0 0 0 0 0 0 0 
0 0 0 0 0 0 0 0 0 
0 0 0 0 0 0 0 0 0 
0 0 0 0 0 0 0 0 0 
0 0 0 0 0 0 0 0 0 
0 0 0 0 0 0 0 0 0 
0 0 0 0 0 0 0 0 0 
0 0 0 0 0 0 0 0 0 
0 0 0 0 0 0 0 0 0 
0 0 0 0 0 0 0 0 0 
0 0 0 0 0 0 0 0 0 
0 0 0 0 0 0 0 0 0 
0 0 0 0 0 0 0 0 0 
0 0 0 0 0 0 0 0 0 
0 0 0 0 0 0 0 0 0 
0 0 0 0 0 0 0 0 0 
0 0 0 0 0 0 0 0 0 
0 0 0 0 0 0 0 0 0 
0 0 0 0 0 0 0 0 0 
0 0 0 0 0 0 0 0 0 
0 0 0 0 0 0 0 0 0 
0 0 0 0 0 0 0 0 0 
0 0 0 0 0 0 0 0 0 
0 0 0 0 0 0 0 0 0 
0 0 0 0 0 0 0 0 0 
0 0 0 0 0 0 0 0 0 
0 0 0 0 0 0 0 0 0 
0 0 0 0 0 0 0 0 0 
0 0 0 0 0 0 0 0 0 
0 0 0 0 0 0 0 0 0 
0 0 0 0 0 0 0 0 0 
0 0 0 0 0 0 0 0 0 
0 0 0 0 0 0 0 0 0 
0 0 0 0 0 0 0 0 0 
0 0 0 0 0 0 0 0 0 
0 0 0 0 0 0 0 0 0 
0 0 0 0 0 0 0 0 0 
0 0 0 0 0 0 0 0 0 
0 0 0 
v 3 844 double
-1.00034 -0.0232504 -0.440724 -0.806202 -0.0108944 -0.33215 -1.2027 -0.255341 -1.83222 
-0.962506 0.0404147 -1.83616 -1.18677 -0.213474 -1.6214 -0.997688 0.0583755 -1.77473 
-0.936981 0.122637 -1.81683 -1.05961 0.0125691 -1.78277 -1.33894 0.156295 -1.90119 
-1.11199 0.086525 -1.75021 -1.08461 -0.0507342 -1.84337 -1.15053 -0.090372 -1.66592 
-0.949585 0.0400099 -1.69728 -1.15484 0.0832023 -1.69198 -0.925117 -0.0359711 -1.69327 
-1.13651 -0.00933753 -1.70727 -1.07563 -0.0113252 -1.65912 -1.04158 -0.0208647 -1.69018 
-0.914995 0.222767 -1.75965 -0.984412 -0.108053 -1.69667 -1.06896 0.0278313 -1.78435 
-1.01886 -0.0585147 -1.61995 -1.10737 -0.0998359 -1.58479 -0.909522 0.0872093 -1.60427 
-1.09179 -0.013483 -1.57829 -0.916449 0.0788902 -1.5877 -1.07126 0.0467332 -1.64435 
-1.05748 0.031369 -1.56027 -1.12738 0.0541452 -1.60901 -0.929603 -0.0440289 -1.56973 
-0.956295 -0.0831273 -1.57509 -1.11765 0.0252541 -1.55923 -1.03857 -0.00666781 -1.44272 
-0.924102 -0.0507259 -1.52751 -1.01457 -0.0107964 -1.53958 -0.976943 0.290424 -1.58592 
-1.23432 -0.0694596 -1.53861 -1.06704 0.0631375 -1.47817 -1.09844 0.0183118 -1.47664 
-1.00808 0.0148176 -1.4857 -0.934027 -0.0827047 -1.53891 -1.06451 0.0639247 -1.45029 
-1.05835 0.0642993 -1.4463 -1.11162 0.0444094 -1.47245 -1.09406 0.0147668 -1.47666 
-0.973923 -0.000797317 -1.46319 -1.09174 0.0550328 -1.44497 -1.02893 -0.125442 -1.45422 
-1.24324 -0.0486225 -1.55044 -1.02869 0.0729429 -1.41418 -1.00893 -0.0112386 -1.41104 
-0.997815 0.0273648 -1.41136 -0.976475 0.0339275 -1.44976 -0.900658 0.0044599 -1.39521 
-1.15883 0.10086 -1.42096 -1.06084 -0.0141527 -1.37708 -1.00642 0.0552764 -1.35864 
-0.921749 0.0429546 -1.368 -0.985938 0.00581331 -1.36378 -1.02866 0.0202123 -1.3686 
-1.06831 -0.0185623 -1.38897 -1.16128 0.128801 -1.39689 -0.981977 -0.0137255 -1.34262 
-0.993695 -0.024701 -1.3247 -0.981044 0.0319056 -1.33623 -1.00614 -0.0220972 -1.31575 
-0.943883 0.0467194 -1.32881 -1.23744 0.213828 -1.3739 -0.925244 -0.0175386 -1.27485 
-1.29362 -0.140283 -1.23198 -0.969808 -0.0651305 -1.3118 -0.954358 -0.138168 -1.22348 
-0.976175 -0.0118911 -1.2805 -0.921481 0.0210106 -1.21756 -0.931554 0.0505228 -1.26174 
-1.04384 -0.0894427 -1.18862 -1.056 0.0240223 -1.20704 -1.12226 0.0363547 -1.16642 
-1.06868 0.016776 -1.20408 -1.03034 -0.194931 -1.19967 -0.970252 0.0364536 -1.24251 
-1.12209 -0.00457418 -1.17804 -0.990635 0.0420147 -1.19817 -1.06516 0.0771265 -1.15099 
-1.03793 0.0348701 -1.14055 -1.00366 0.0399991 -1.16079 -1.03136 0.0523968 -1.11858 
-1.08179 0.0011668 -1.13778 -1.11169 -0.00999213 -1.0777 -1.12596 0.0628153 -1.01973 
-1.04363 -0.0841873 -1.08471 -1.11979 -0.0935339 -1.16609 -1.3418 -0.0269543 -1.14029 
-1.11231 0.0636242 -1.04807 -0.950107 0.144321 -1.06197 -0.983192 0.135115 -1.02118 
-1.12559 0.117598 -1.03961 -0.675404 0.0146539 -0.94582 -1.10829 -0.0886196 -1.04082 
-1.11665 -0.00812778 -1.05506 -1.0128 0.046232 -1.0067 -0.913284 0.158517 -0.962093 
-1.03879 -0.0624765 -1.00745 -1.01666 -0.0134878 -1.00746 -1.27205 0.0973979 -1.11081 
-1.21138 -0.036323 -1.01278 -1.14581 0.0784046 -1.08614 -1.35203 -0.0695925 -1.08457 
-0.959101 -0.0561126 -0.906312 -1.25129 0.270031 -1.05951 -1.12468 -0.0779587 -0.802704 
-0.855008 0.17058 -0.946864 -1.10868 0.0905814 -0.886808 -0.925304 0.261854 -0.778853 
-0.912444 0.0976812 -0.808454 -0.918563 0.0796904 -0.766535 -0.944161 -0.00762944 -0.800602 
-0.823659 0.0731669 -0.856687 -0.988289 0.00676927 -0.869024 -0.932838 0.0216698 -0.77947 
-0.966386 0.0841576 -0.730648 -0.931499 -0.0272722 -0.730281 -0.956315 -0.0149703 -0.734491 
-1.18267 -0.020308 -0.803892 -1.12412 -0.143444 -0.876652 -1.29408 0.0651611 -0.850517 
-0.973001 0.0344399 -0.72745 -1.07387 0.0506401 -0.702333 -1.06193 0.0836435 -0.774008 
-0.932786 0.0146415 -0.689059 -0.885774 -0.00154267 -0.660798 -0.926044 0.0396193 -0.615123 
-0.930588 -0.00169409 -0.701086 -0.9126 -0.0250011 -0.656992 -0.937251 -0.0339002 -0.700001 
-0.954813 0.0805278 -0.764746 -0.884506 0.0752088 -0.668216 -1.05757 -0.000948923 -0.702484 
-1.0204 -0.012736 -0.601583 -0.972976 -0.0142842 -0.625732 -0.877349 0.0163809 -0.609977 
-0.876229 -0.00189348 -0.5791 -0.854043 -0.00927393 -0.589559 -0.9049 0.0136409 -0.553078 
-0.91901 -0.0042973 -0.610818 -0.884407 0.00529966 -0.706661 -0.826303 -0.012427 -0.588371 
-1.1024 -0.138919 -0.684252 -1.0982 -0.0996367 -0.857749 -1.05786 0.0379988 -0.606684 
-1.00563 -0.0210287 -0.528081 -0.911546 -0.0688518 -0.548027 -0.916644 -0.0103381 -0.514094 
-0.842823 -0.0507024 -0.576728 -0.810185 -0.0419336 -0.481125 -0.900133 -0.0832099 -0.490008 
-0.749397 -0.0174706 -0.509928 -0.965167 -0.0358509 -0.645901 -0.858477 0.0573318 -0.529502 
-0.781319 0.0450295 -0.48246 -0.847796 -0.00471037 -0.823154 -0.96418 0.0979962 -0.625562 
-0.994172 -0.0501048 -0.525258 -1.10587 -0.100755 -0.60472 -1.00268 0.089811 -0.629009 
-1.08716 -0.00415076 -0.545628 -0.855435 -0.00685512 -0.485335 -1.36071 0.16294 -0.695471 
-0.910512 0.0238207 -0.512057 -0.944302 -0.0880939 -0.433719 -0.955178 -0.000840519 -0.475634 
-0.898938 0.0126997 -0.535087 -0.92146 0.0246169 -0.48102 -0.960214 0.00388863 -0.539956 
-1.19425 0.0214873 -0.526752 -1.1562 -0.105248 -0.561172 -1.09306 0.0674985 -0.609367 
-1.16601 0.0570155 -0.534161 -1.02121 0.095348 -0.654139 -1.06038 -0.00135606 -0.501483 
-0.937405 0.22958 -0.393758 -1.0503 0.0559423 -0.515736 -1.09407 -0.0322827 -0.510939 
-1.10695 -0.0902523 -0.441776 -0.999969 0.0684863 -0.464732 -1.0836 -0.0534432 -0.432057 
-1.28246 0.106436 -0.544036 -0.992327 0.0320781 -0.433831 -0.985276 0.0353012 -0.462418 
-0.982318 -0.0189111 -0.436537 -0.996174 -0.00346525 -0.420118 -0.933107 0.0304874 -0.422921 
-1.02973 -0.00358622 -0.384084 -1.06989 0.0188031 -0.467907 -1.03648 0.0542251 -0.409845 
-1.16934 -0.0758934 -0.568259 -1.03026 0.0619504 -0.546376 -1.0131 0.0634271 -0.515451 
-1.15527 -0.102764 -0.538678 -0.946195 0.136233 -0.42648 -1.08991 0.137847 -0.454569 
-1.07934 0.0310271 -0.454465 -1.06889 -0.0442739 -0.450989 -0.973812 -0.0527785 -0.41316 
-1.05916 -0.0144816 -0.446691 -1.09376 -0.0218339 -0.461581 -0.907959 -0.0154598 -0.382793 
-1.00738 -0.205525 -0.480159 -0.910781 0.0495356 -0.398948 -0.837406 0.0240397 -0.376634 
-1.05631 0.0824081 -0.446817 -1.02142 -0.0327156 -0.4295 -1.01595 -0.0335297 -0.427714 
-1.00694 -0.16381 -0.418555 -1.032 -0.0445882 -0.433386 -0.990574 -0.0391879 -0.506795 
-1.1087 0.00356765 -0.467077 -0.938583 -0.0488329 -0.401061 -1.04165 -0.0145057 -0.437497 
-0.990747 0.0181576 -0.418861 -1.07954 0.027614 -0.457271 -0.75824 -0.0671464 -0.324322 
-1.07878 -0.0350733 -0.456347 -1.04416 -0.0601644 -0.447814 -1.0504 -0.0284631 -0.444066 
-1.23948 -0.000727817 -0.5072 -1.17959 -0.0787618 -0.496605 -1.13527 -0.018268 -0.443383 
-1.02667 -0.0144602 -0.401487 -0.99707 0.00316529 -0.416791 -0.791887 0.00173049 -0.333522 
-0.932337 -0.134117 -0.386384 -1.0354 0.0268623 -0.434445 -1.05159 0.0364709 -0.441584 
-1.10701 -0.11136 -0.483299 -1.04298 0.101834 -0.409641 -1.22764 -0.28167 -0.578665 
-1.05064 0.462322 -0.605453 -0.843034 0.481855 -0.521318 -0.989806 0.0837937 -0.428491 
-0.799999 -0.00121106 -0.336579 -0.790586 0.0712993 -0.335457 -0.999964 0.0869779 -0.418165 
-1.2603 -0.0495283 -0.564291 -1.10956 0.244629 -0.502837 -1.10532 0.0194534 -0.435502 
-0.832088 -0.0318468 -0.33989 -1.20732 0.0667448 -0.516204 -1.05085 0.013236 -0.441216 
-0.751356 -0.0136113 -0.312253 -0.865076 0.0850209 -0.366749 -0.904928 0.0390616 -0.385166 
-0.933114 0.0404555 -0.390854 -1.00647 -0.152266 -0.421994 -1.02297 0.0072405 -0.421721 
-0.818275 -0.0676643 -0.350174 -1.06576 -0.170065 -0.458422 -1.01257 0.0846726 -0.374894 
-1.03802 0.00487468 -0.435751 -0.848002 0.0315521 -0.384486 -0.877403 0.0789787 -0.371339 
-0.936705 0.0648869 -0.401463 -0.659233 -0.00682562 -0.291829 -1.01875 -0.0223104 -0.43064 
-0.987301 0.0685646 -0.439628 -1.01798 0.0649121 -0.426006 -1.04784 -0.107395 -0.445446 
-1.05912 0.272563 -0.510882 -0.984605 -0.010851 -0.429494 -0.967363 -0.00655089 -0.402586 
-0.98508 -0.0231668 -0.403878 -0.997483 0.0128353 -0.28555 -0.673258 -0.0828477 -0.278928 
-0.752173 0.0106581 -0.319586 -0.919418 -0.05118 -0.388338 -1.04786 -0.0464666 -0.450572 
-0.973468 0.0414052 -0.405487 -0.882465 0.0911956 -0.544652 -0.750122 0.0080877 -0.318401 
-0.922342 -0.11256 -0.449467 -0.908266 0.143626 -0.244409 -0.89456 0.0661632 -0.376705 
-0.996192 0.0137803 -0.439279 -0.986056 0.00727222 -0.386047 -0.966339 0.0126956 -0.427095 
-0.951852 -0.0235605 -0.416479 -1.02277 0.0779224 -0.408959 -0.880997 0.0842045 -0.572684 
-0.85461 -0.0209236 -0.359875 -0.787546 -0.0389201 -0.333917 -0.859205 0.0192994 -0.364564 
-0.862655 -0.0343824 -0.356348 -0.840434 -0.0286592 -0.347792 -0.904461 0.0708913 -0.382291 
-0.900706 0.0889833 -0.378089 -0.940013 -0.0905148 -0.394698 -1.0042 -0.0447523 -0.432328 
-1.01192 -0.0296389 -0.422596 -1.17411 -0.0160239 -0.481518 -0.923719 -0.00876132 -0.404561 
-0.876404 -0.00587135 -0.281164 -0.893951 -0.0237006 -0.369143 -0.818134 0.0315214 -0.333222 