# vtk DataFile Version 4.0
Generated by LIGGGHTS
ASCII
DATASET POLYDATA
POINTS 837 float
-0.203417 -0.0137763 -0.189888 -0.201173 -0.028441 -0.187719 -0.200528 0.00691199 -0.189407 
-0.477934 -0.017555 -0.394409 -0.470999 -0.0109301 -0.394815 -0.459739 -0.00547631 -0.393164 
-0.471472 0.00553321 -0.392773 -0.454399 0.0177806 -0.391898 -0.47134 -0.0372098 -0.387 
-0.474408 -0.033346 -0.374918 -0.468825 -0.00529569 -0.37719 -0.434945 -0.00622523 -0.37684 
-0.452134 -0.0224726 -0.372417 -0.430596 0.0151205 -0.374786 -0.457382 0.0243397 -0.374371 
-0.476546 0.0286037 -0.372941 -0.457727 0.00484818 -0.370138 -0.45372 -0.00233973 -0.36418 
-0.45477 0.0025454 -0.367442 -0.438065 0.00496599 -0.364101 -0.45794 -0.00124437 -0.360827 
-0.433383 -0.00243238 -0.360925 -0.44561 0.00252977 -0.357223 -0.44003 0.0038721 -0.357873 
-0.445325 -0.012138 -0.355783 -0.438465 0.0233029 -0.35344 -0.41305 0.0115488 -0.351333 
-0.443837 -0.0130269 -0.346235 -0.445924 -0.00288359 -0.346346 -0.417498 0.00112992 -0.349878 
-0.435169 0.00724291 -0.348374 -0.427223 0.0248483 -0.34692 -0.45358 0.0513979 -0.346524 
-0.43795 -0.00838927 -0.34221 -0.428989 -0.00394059 -0.344893 -0.437543 -0.00303806 -0.34205 
-0.424279 0.0132492 -0.342633 -0.429455 0.0145576 -0.342802 -0.444638 -0.0110995 -0.340729 
-0.434093 -0.000127556 -0.338479 -0.420452 0.0120788 -0.335739 -0.413851 0.0203321 -0.336923 
-0.428245 0.021195 -0.335343 -0.458844 0.0296971 -0.337542 -0.431369 -0.00351223 -0.329343 
-0.425664 -0.00598049 -0.328936 -0.427501 0.00153342 -0.327081 -0.421767 0.00987276 -0.32982 
-0.409232 0.0103248 -0.330678 -0.425449 0.0173368 -0.327016 -0.422698 -0.00583028 -0.324672 
-0.422121 -0.0018141 -0.324287 -0.419635 0.0266937 -0.325837 -0.425747 -0.0231314 -0.321469 
-0.418328 0.010559 -0.32219 -0.461064 0.0560008 -0.320445 -0.416478 -0.0155167 -0.318821 
-0.413085 0.0137203 -0.319456 -0.412465 0.0182631 -0.317121 -0.407104 0.019954 -0.317294 
-0.408291 0.0262019 -0.317864 -0.432141 0.0382307 -0.31761 -0.414867 -0.0160543 -0.315121 
-0.409321 -0.00321832 -0.313861 -0.40144 0.0049377 -0.313888 -0.407472 0.00869339 -0.314261 
-0.411816 0.0147918 -0.313999 -0.417904 0.022255 -0.31375 -0.420191 -0.022998 -0.310665 
-0.406244 -0.0188325 -0.310835 -0.40303 0.00153456 -0.308688 -0.397676 -0.00251723 -0.305285 
-0.399026 0.00430044 -0.307261 -0.402547 0.0083275 -0.30723 -0.397789 0.00917133 -0.308153 
-0.419031 0.0106581 -0.304665 -0.416742 -0.0188493 -0.304377 -0.391444 0.00688134 -0.302667 
-0.397749 -0.0279652 -0.298752 -0.393609 -0.0116323 -0.299677 -0.38847 -0.00207413 -0.297948 
-0.398737 -0.00453222 -0.294815 -0.39028 -0.0049836 -0.296972 -0.397412 -0.00849036 -0.291805 
-0.393752 -0.00615075 -0.293354 -0.391293 -0.00651573 -0.290324 -0.384635 0.0063877 -0.292671 
-0.387972 0.00778299 -0.290859 -0.401432 0.0139171 -0.292884 -0.393128 -0.0243398 -0.288065 
-0.391894 -0.0194181 -0.287767 -0.390644 -0.00201795 -0.288425 -0.387018 -0.0230486 -0.285764 
-0.386012 -0.0190241 -0.283752 -0.38823 -0.0168873 -0.28559 -0.384015 -0.0160363 -0.279984 
-0.391147 -0.00691179 -0.281694 -0.379549 0.00192635 -0.280993 -0.38571 0.0226215 -0.282418 
-0.395525 0.0283661 -0.279878 -0.379873 -0.00797355 -0.277345 -0.373121 -0.00815298 -0.275416 
-0.368734 -0.00553216 -0.276407 -0.385255 -0.0367342 -0.272462 -0.377625 -0.00247733 -0.274871 
-0.360707 0.00156546 -0.274347 -0.375393 0.00608611 -0.274211 -0.371703 0.0134253 -0.27161 
-0.37271 0.0198205 -0.272788 -0.373556 -0.0230625 -0.271148 -0.366314 -0.00931166 -0.270703 
-0.372409 0.0177448 -0.268344 -0.396859 -0.0482978 -0.267012 -0.381176 -0.045478 -0.264909 
-0.361312 0.000832686 -0.265523 -0.356252 -0.0211124 -0.26026 -0.371405 -0.0196023 -0.260992 
-0.382459 -0.013125 -0.263252 -0.361391 -0.00806373 -0.261966 -0.360277 -0.0264255 -0.259674 
-0.355419 -0.0231849 -0.258121 -0.353414 -0.0120842 -0.257334 -0.349438 -0.0126906 -0.256225 
-0.35126 0.00672584 -0.258539 -0.348574 0.0191255 -0.25778 -0.355177 0.0263859 -0.257251 
-0.349143 -0.0168106 -0.255573 -0.346921 -0.0148766 -0.252436 -0.344967 -0.0106753 -0.252372 
-0.350274 -0.00857354 -0.254841 -0.344711 0.00142163 -0.2532 -0.348019 0.0163058 -0.25325 
-0.354975 0.0280455 -0.254763 -0.356201 0.0323747 -0.254033 -0.355276 -0.0319788 -0.250979 
-0.340984 -0.0133121 -0.250015 -0.336086 -0.00858148 -0.248318 -0.343754 -0.00631166 -0.251811 
-0.340399 -0.00275275 -0.251321 -0.33776 0.000420723 -0.249677 -0.339343 0.00331862 -0.250761 
-0.335271 0.00180481 -0.248278 -0.338035 0.00634248 -0.249796 -0.335217 0.00486798 -0.249402 
-0.341981 0.0113583 -0.250672 -0.343101 0.0195481 -0.248773 -0.345447 0.023007 -0.252067 
-0.346711 0.0277552 -0.250741 -0.33775 -0.0172292 -0.24804 -0.335812 -0.0147094 -0.246749 
-0.335578 -0.011796 -0.247533 -0.331733 -0.012309 -0.245394 -0.333438 -0.00778072 -0.246876 
-0.329853 -0.00741402 -0.245002 -0.332963 -0.0035855 -0.247038 -0.33013 -0.00444395 -0.245605 
-0.326798 -0.00397687 -0.243782 -0.332428 -0.000597375 -0.246602 -0.329779 -0.00163591 -0.244202 
-0.329251 0.00222948 -0.245293 -0.334495 0.00524955 -0.245123 -0.327848 0.00981335 -0.244002 
-0.334193 0.0131261 -0.2472 -0.334909 0.0186609 -0.245218 -0.341126 0.022591 -0.24478 
-0.336115 0.0225108 -0.245989 -0.359251 0.0443992 -0.248427 -0.327953 -0.012071 -0.24074 
-0.330597 -0.0100672 -0.24353 -0.32574 -0.010499 -0.242861 -0.326353 -0.00753061 -0.243314 
-0.323884 0.00194647 -0.241527 -0.319628 0.00307747 -0.240726 -0.319926 0.00010975 -0.24104 
-0.327262 0.0057161 -0.242752 -0.32158 0.00526084 -0.24141 -0.322182 0.00825502 -0.241483 
-0.326809 0.0126952 -0.243313 -0.328359 0.0165023 -0.243514 -0.330954 0.0180277 -0.243324 
-0.330489 0.0211147 -0.242266 -0.328809 0.0187174 -0.240429 -0.329457 0.023695 -0.241085 
-0.344473 -0.0455472 -0.238562 -0.316969 -0.0129594 -0.237739 -0.316843 -0.00445507 -0.239559 
-0.314571 -0.00602586 -0.238382 -0.333724 0.00032253 -0.237682 -0.31669 -0.00137593 -0.239632 
-0.311223 -0.0024207 -0.237287 -0.336822 0.00231476 -0.240933 -0.313965 0.000576508 -0.237414 
-0.316889 0.00479098 -0.23837 -0.313145 0.0062856 -0.237792 -0.315903 0.0086842 -0.238801 
-0.320769 0.0109904 -0.238947 -0.324686 0.0189303 -0.239971 -0.321689 0.0226303 -0.237984 
-0.330161 0.0339579 -0.238124 -0.327989 0.0377758 -0.236969 -0.321159 -0.0383473 -0.233653 
-0.315969 -0.0216247 -0.23591 -0.310361 -0.0116661 -0.236196 -0.311217 -0.00636522 -0.237144 
-0.3081 -0.0017502 -0.234881 -0.310502 0.00526793 -0.236744 -0.310241 0.00834139 -0.23644 
-0.304002 0.00988778 -0.233711 -0.31035 0.0122983 -0.236237 -0.307812 0.0106243 -0.235272 
-0.30725 0.0142816 -0.233581 -0.3134 0.0181227 -0.2354 -0.320067 0.0354171 -0.234516 
-0.308686 -0.0287821 -0.232074 -0.306012 -0.0211592 -0.232852 -0.302849 -0.0219447 -0.231319 
-0.303914 -0.00560453 -0.233008 -0.295475 -0.00551394 -0.230535 -0.29667 -0.00244339 -0.231146 
-0.299289 0.000370179 -0.232325 -0.296443 0.000506871 -0.230484 -0.298988 0.00526485 -0.231887 
-0.297646 0.0179477 -0.229959 -0.312601 0.0306634 -0.233108 -0.290539 -0.0131571 -0.227798 
-0.29135 -0.00913334 -0.227489 -0.293101 -0.00374329 -0.229595 -0.295351 0.00896418 -0.229035 
-0.301931 0.0230693 -0.229651 -0.292979 0.0249496 -0.226697 -0.305823 0.0388584 -0.227602 
-0.285957 -0.0237693 -0.224131 -0.286861 -0.020813 -0.225065 -0.28721 -0.0167948 -0.224869 
-0.280958 -0.0122643 -0.223867 -0.280617 0.00338895 -0.224262 -0.28093 0.0105164 -0.222885 
-0.286354 0.0179351 -0.224201 -0.288712 0.0213416 -0.225628 -0.290131 0.0245983 -0.225601 
-0.310737 0.0431465 -0.226288 -0.283556 -0.0305198 -0.221387 -0.27577 -0.0238287 -0.219876 
-0.270653 -0.00900704 -0.219897 -0.268045 -0.00750081 -0.218883 -0.28001 -0.00309497 -0.223497 
-0.275813 0.0100453 -0.22188 -0.278836 0.0150265 -0.22259 -0.290234 0.0380985 -0.221633 
-0.28683 -0.035729 -0.219982 -0.277748 -0.02901 -0.218298 -0.269893 -0.0249771 -0.217188 
-0.269338 -0.0180273 -0.217199 -0.266315 -0.0133275 -0.216506 -0.26584 -0.00948541 -0.217807 
-0.260917 -0.00687542 -0.215896 -0.265122 -0.00583696 -0.217711 -0.261336 -0.00386104 -0.216199 
-0.263022 0.00526843 -0.215369 -0.268089 0.00841651 -0.217656 -0.263448 0.00908439 -0.216748 
-0.266992 0.0145036 -0.217708 -0.27125 0.0211943 -0.218409 -0.273926 0.0303378 -0.217279 
-0.269494 0.0298497 -0.21565 -0.271544 -0.0352783 -0.214809 -0.257721 -0.00693509 -0.214561 
-0.254128 -0.00410296 -0.213149 -0.258185 -0.00304365 -0.213823 -0.251916 0.00103495 -0.211946 
-0.257963 0.00461787 -0.214649 -0.26272 0.0126317 -0.214837 -0.266327 0.0237526 -0.214878 
-0.246125 -0.0151183 -0.208786 -0.255654 -0.00748934 -0.211212 -0.247028 -0.00253166 -0.210237 
-0.245971 0.000629015 -0.209748 -0.246865 0.00989447 -0.209763 -0.254678 0.0135995 -0.211564 
-0.24787 0.017824 -0.209172 -0.26056 -0.0408102 -0.208418 -0.245959 -0.0180797 -0.208279 
-0.246938 -0.0100348 -0.207705 -0.243997 -0.0126915 -0.208297 -0.242349 -0.00903704 -0.20791 
-0.240731 -0.00338803 -0.207548 -0.254198 0.00392368 -0.206309 -0.244924 0.00416489 -0.208104 
-0.246529 0.013764 -0.208106 -0.233787 -0.0128684 -0.203875 -0.244221 -0.00707758 -0.203873 
-0.2342 -0.009446 -0.204312 -0.230322 -0.0102739 -0.201554 -0.239254 -0.0047625 -0.20224 
-0.232283 -0.00449935 -0.203903 -0.234964 -0.00153742 -0.204073 -0.23352 0.00368209 -0.203306 
-0.230188 -0.000232095 -0.201995 -0.231316 0.00731975 -0.203351 -0.227799 0.00333312 -0.201969 
-0.234151 0.0141258 -0.20393 -0.232981 0.0171537 -0.203022 -0.257429 0.0514179 -0.202619 
-0.234253 -0.0248337 -0.201097 -0.227654 -0.0150394 -0.20001 -0.225009 -0.0100909 -0.200415 
-0.22074 -0.00704142 -0.198872 -0.229438 -0.00528299 -0.20121 -0.224744 -0.0061707 -0.199576 
-0.22371 -0.000616054 -0.200315 -0.220755 -0.00305897 -0.197989 -0.217871 -0.000239136 -0.197858 
-0.22077 0.00578882 -0.198958 -0.226455 0.0106072 -0.201139 -0.220406 0.0104718 -0.198574 
-0.223579 0.022529 -0.198406 -0.243969 -0.0505636 -0.196606 -0.221297 -0.0278158 -0.196152 
[...]
POINT_DATA 837
FIELD FieldData 7
id 1 837 int
792 764 805 470 442 385 475 276 195 
449 461 462 467 427 540 561 387 343 
483 428 464 465 513 458 430 494 353 
478 469 611 471 473 436 484 472 434 
502 459 460 480 357 550 431 526 408 
351 433 440 390 453 476 422 397 568 
533 596 418 416 417 509 525 573 479 
435 451 466 368 537 501 363 375 500 
599 450 340 615 630 364 412 455 505 
558 554 582 492 645 507 541 583 560 
522 482 508 543 564 619 603 530 578 
719 498 361 493 520 497 366 574 572 
566 420 515 534 676 677 445 518 662 
512 559 648 581 546 553 538 656 516 
489 511 487 571 444 548 683 620 702 
527 514 495 531 454 556 524 529 528 
549 474 635 809 565 519 576 602 545 
542 503 589 506 551 491 488 562 532 
588 521 624 517 586 608 563 604 594 
715 577 555 485 698 606 591 557 609 
629 655 685 675 650 614 595 726 661 
711 486 587 610 552 658 598 575 600 
742 590 775 547 627 621 585 580 674 
680 633 654 625 652 734 647 628 699 
613 707 632 570 631 671 681 692 682 
612 607 716 536 644 725 592 263 637 
694 617 640 597 673 641 690 622 712 
736 666 812 634 601 686 623 639 735 
727 638 567 616 669 643 691 636 544 
653 710 774 697 646 657 642 649 721 
539 688 703 713 665 700 569 668 704 
593 667 744 739 670 660 784 626 651 
701 684 678 720 718 740 760 663 717 
782 679 724 800 579 822 664 730 776 
827 755 794 757 741 696 747 672 732 
758 714 928 754 706 729 814 898 756 
709 777 769 810 750 753 695 790 748 
801 867 826 846 903 838 765 705 738 
823 875 820 693 836 789 708 828 795 
788 961 1012 988 1041 990 816 752 737 
839 1015 1007 723 766 837 780 733 722 
803 771 833 819 781 808 866 687 853 
728 856 743 773 845 849 999 797 798 
778 762 783 751 818 772 785 942 840 
759 888 768 843 900 731 889 848 958 
746 787 689 874 832 813 882 854 891 
817 806 862 767 858 831 911 908 852 
829 791 871 916 763 811 872 799 830 
906 659 915 892 807 841 883 786 956 
863 922 851 873 824 870 796 859 902 
954 847 761 909 815 943 904 821 878 
804 913 864 844 605 957 931 918 868 
749 793 881 907 919 857 880 897 855 
941 887 876 899 940 879 910 896 935 
901 953 930 923 945 894 835 914 921 
865 912 925 964 924 955 944 825 939 
890 884 770 842 933 861 860 965 905 
989 970 1004 885 946 893 920 969 779 
834 1019 971 959 1009 949 850 950 1016 
1006 936 938 981 1027 1018 934 895 986 
917 926 1003 972 947 975 960 987 991 
980 979 951 1011 1036 973 877 1014 886 
869 1052 1025 966 1020 1028 997 1017 1040 
976 963 1022 984 974 1001 948 1026 1010 
994 1034 962 1049 1030 1032 1071 995 932 
1061 1000 977 983 985 1046 1021 927 1042 
1259 1255 1048 967 1253 1023 1085 937 1029 
1033 1037 998 1031 1038 1076 1066 1084 996 
1087 1083 982 952 929 992 1013 1109 1073 
1075 1070 1078 1054 1081 1064 1094 1098 1105 
1095 1072 1055 1008 1104 1068 1035 1056 1002 
1005 1079 1090 1060 978 1063 1047 1077 1096 
993 1057 1100 1106 1092 1110 1067 1039 1099 
1107 1089 968 1097 1044 1101 1108 1059 1024 
1045 1074 1053 1123 1103 1062 1051 1058 1086 
1117 1043 1069 1119 1065 1116 1111 1050 1082 
1080 1102 1093 802 1114 1091 1118 1120 1124 
1088 1122 1121 1131 1112 1113 1115 1137 1135 
1127 1126 1128 1130 1129 1133 1132 745 1125 
1136 1144 1134 1141 1142 1140 1143 1148 1138 
1149 1145 1146 1147 1139 1150 1156 1163 1157 
1154 1160 1161 1152 1153 1162 1159 1151 1155 
1158 1169 1170 1168 1173 1167 1174 1165 1171 
1164 1166 1172 1175 1179 1185 1184 1187 1182 
1176 1186 1183 1180 1177 1181 1188 1194 1178 
1199 1193 1198 1189 1192 1197 1201 1195 1196 
1210 1190 1200 1191 1205 1204 1209 1213 1202 
1208 1206 1207 1211 1212 1203 1214 1218 1221 
1220 1225 1219 1224 1222 1217 1223 1216 1215 
1226 1236 1232 1229 1234 1228 1231 1237 1227 
1238 1235 1233 1249 1251 1239 1230 1242 1245 
1250 1248 1243 1247 1244 1246 1241 1240 1252 
1260 1256 1254 1262 1261 1263 1257 1264 1258 

type 1 837 int
1 1 1 1 1 1 1 1 1 
1 1 1 1 1 1 1 1 1 
1 1 1 1 1 1 1 1 1 
1 1 1 1 1 1 1 1 1 
1 1 1 1 1 1 1 1 1 
1 1 1 1 1 1 1 1 1 
1 1 1 1 1 1 1 1 1 
1 1 1 1 1 1 1 1 1 
1 1 1 1 1 1 1 1 1 
1 1 1 1 1 1 1 1 1 
1 1 1 1 1 1 1 1 1 
1 1 1 1 1 1 1 1 1 
1 1 1 1 1 1 1 1 1 
1 1 1 1 1 1 1 1 1 
1 1 1 1 1 1 1 1 1 
1 1 1 1 1 1 1 1 1 
1 1 1 1 1 1 1 1 1 
1 1 1 1 1 1 1 1 1 
1 1 1 1 1 1 1 1 1 
1 1 1 1 1 1 1 1 1 
1 1 1 1 1 1 1 1 1 
1 1 1 1 1 1 1 1 1 
1 1 1 1 1 1 1 1 1 
1 1 1 1 1 1 1 1 1 
1 1 1 1 1 1 1 1 1 
1 1 1 1 1 1 1 1 1 
1 1 1 1 1 1 1 1 1 
1 1 1 1 1 1 1 1 1 
1 1 1 1 1 1 1 1 1 
1 1 1 1 1 1 1 1 1 
1 1 1 1 1 1 1 1 1 
1 1 1 1 1 1 1 1 1 
1 1 1 1 1 1 1 1 1 
1 1 1 1 1 1 1 1 1 
1 1 1 1 1 1 1 1 1 
1 1 1 1 1 1 1 1 1 
1 1 1 1 1 1 1 1 1 
1 1 1 1 1 1 1 1 1 
1 1 1 1 1 1 1 1 1 
1 1 1 1 1 1 1 1 1 
1 1 1 1 1 1 1 1 1 
1 1 1 1 1 1 1 1 1 
1 1 1 1 1 1 1 1 1 
1 1 1 1 1 1 1 1 1 
1 1 1 1 1 1 1 1 1 
1 1 1 1 1 1 1 1 1 
1 1 1 1 1 1 1 1 1 
1 1 1 1 1 1 1 1 1 
1 1 1 1 1 1 1 1 1 
1 1 1 1 1 1 1 1 1 
1 1 1 1 1 1 1 1 1 
1 1 1 1 1 1 1 1 1 
1 1 1 1 1 1 1 1 1 
1 1 1 1 1 1 1 1 1 
1 1 1 1 1 1 1 1 1 
1 1 1 1 1 1 1 1 1 
1 1 1 1 1 1 1 1 1 
1 1 1 1 1 1 1 1 1 
1 1 1 1 1 1 1 1 1 
1 1 1 1 1 1 1 1 1 
1 1 1 1 1 1 1 1 1 
1 1 1 1 1 1 1 1 1 
1 1 1 1 1 1 1 1 1 
1 1 1 1 1 1 1 1 1 
1 1 1 1 1 1 1 1 1 
1 1 1 1 1 1 1 1 1 
1 1 1 1 1 1 1 1 1 
1 1 1 1 1 1 1 1 1 
1 1 1 1 1 1 1 1 1 
1 1 1 1 1 1 1 1 1 
1 1 1 1 1 1 1 1 1 
1 1 1 1 1 1 1 1 1 
1 1 1 1 1 1 1 1 1 
1 1 1 1 1 1 1 1 1 
1 1 1 1 1 1 1 1 1 
1 1 1 1 1 1 1 1 1 
1 1 1 1 1 1 1 1 1 
1 1 1 1 1 1 1 1 1 
1 1 1 1 1 1 1 1 1 
1 1 1 1 1 1 1 1 1 
1 1 1 1 1 1 1 1 1 
1 1 1 1 1 1 1 1 1 
1 1 1 1 1 1 1 1 1 
1 1 1 1 1 1 1 1 1 
1 1 1 1 1 1 1 1 1 
1 1 1 1 1 1 1 1 1 
1 1 1 1 1 1 1 1 1 
1 1 1 1 1 1 1 1 1 
1 1 1 1 1 1 1 1 1 
1 1 1 1 1 1 1 1 1 
1 1 1 1 1 1 1 1 1 
1 1 1 1 1 1 1 1 1 
1 1 1 1 1 1 1 1 1 

i 3 837 int
0 0 0 0 0 0 0 0 0 
0 0 0 0 0 0 0 0 0 
0 0 0 0 0 0 0 0 0 
0 0 0 0 0 0 0 0 0 
0 0 0 0 0 0 0 0 0 
0 0 0 0 0 0 0 0 0 
0 0 0 0 0 0 0 0 0 
0 0 0 0 0 0 0 0 0 
0 0 0 0 0 0 0 0 0 
0 0 0 0 0 0 0 0 0 
0 0 0 0 0 0 0 0 0 
0 0 0 0 0 0 0 0 0 
0 0 0 0 0 0 0 0 0 
0 0 0 0 0 0 0 0 0 
0 0 0 0 0 0 0 0 0 
0 0 0 0 0 0 0 0 0 
0 0 0 0 0 0 0 0 0 
0 0 0 0 0 0 0 0 0 
0 0 0 0 0 0 0 0 0 
0 0 0 0 0 0 0 0 0 
0 0 0 0 0 0 0 0 0 
0 0 0 0 0 0 0 0 0 
0 0 0 0 0 0 0 0 0 
0 0 0 0 0 0 0 0 0 
0 0 0 0 0 0 0 0 0 
0 0 0 0 0 0 0 0 0 
0 0 0 0 0 0 0 0 0 
0 0 0 0 0 0 0 0 0 
0 0 0 0 0 0 0 0 0 
0 0 0 0 0 0 0 0 0 
0 0 0 0 0 0 0 0 0 
0 0 0 0 0 0 0 0 0 
0 0 0 0 0 0 0 0 0 
0 0 0 0 0 0 0 0 0 
0 0 0 0 0 0 0 0 0 
0 0 0 0 0 0 0 0 0 
0 0 0 0 0 0 0 0 0 
0 0 0 0 0 0 0 0 0 
0 0 0 0 0 0 0 0 0 
0 0 0 0 0 0 0 0 0 
0 0 0 0 0 0 0 0 0 
0 0 0 0 0 0 0 0 0 
0 0 0 0 0 0 0 0 0 
0 0 0 0 0 0 0 0 0 
0 0 0 0 0 0 0 0 0 
0 0 0 0 0 0 0 0 0 
0 0 0 0 0 0 0 0 0 
0 0 0 0 0 0 0 0 0 
0 0 0 0 0 0 0 0 0 
0 0 0 0 0 0 0 0 0 
0 0 0 0 0 0 0 0 0 
0 0 0 0 0 0 0 0 0 
0 0 0 0 0 0 0 0 0 
0 0 0 0 0 0 0 0 0 
0 0 0 0 0 0 0 0 0 
0 0 0 0 0 0 0 0 0 
0 0 0 0 0 0 0 0 0 
0 0 0 0 0 0 0 0 0 
0 0 0 0 0 0 0 0 0 
0 0 0 0 0 0 0 0 0 
0 0 0 0 0 0 0 0 0 
0 0 0 0 0 0 0 0 0 
0 0 0 0 0 0 0 0 0 
0 0 0 0 0 0 0 0 0 
0 0 0 0 0 0 0 0 0 
0 0 0 0 0 0 0 0 0 
0 0 0 0 0 0 0 0 0 
0 0 0 0 0 0 0 0 0 
0 0 0 0 0 0 0 0 0 
0 0 0 0 0 0 0 0 0 
0 0 0 0 0 0 0 0 0 
0 0 0 0 0 0 0 0 0 
0 0 0 0 0 0 0 0 0 
0 0 0 0 0 0 0 0 0 
0 0 0 0 0 0 0 0 0 
0 0 0 0 0 0 0 0 0 
0 0 0 0 0 0 0 0 0 
0 0 0 0 0 0 0 0 0 
0 0 0 0 0 0 0 0 0 
0 0 0 0 0 0 0 0 0 
0 0 0 0 0 0 0 0 0 
0 0 0 0 0 0 0 0 0 
0 0 0 0 0 0 0 0 0 
0 0 0 0 0 0 0 0 0 
0 0 0 0 0 0 0 0 0 
0 0 0 0 0 0 0 0 0 
0 0 0 0 0 0 0 0 0 
0 0 0 0 0 0 0 0 0 
0 0 0 0 0 0 0 0 0 
0 0 0 0 0 0 0 0 0 
0 0 0 0 0 0 0 0 0 
0 0 0 0 0 0 0 0 0 
0 0 0 0 0 0 0 0 0 
0 0 0 0 0 0 0 0 0 
0 0 0 0 0 0 0 0 0 
0 0 0 0 0 0 0 0 0 
0 0 0 0 0 0 0 0 0 
0 0 0 0 0 0 0 0 0 
0 0 0 0 0 0 0 0 0 
0 0 0 0 0 0 0 0 0 
0 0 0 0 0 0 0 0 0 
0 0 0 0 0 0 0 0 0 
0 0 0 0 0 0 0 0 0 
0 0 0 0 0 0 0 0 0 
0 0 0 0 0 0 0 0 0 
0 0 0 0 0 0 0 0 0 
0 0 0 0 0 0 0 0 0 
0 0 0 0 0 0 0 0 0 
0 0 0 0 0 0 0 0 0 
0 0 0 0 0 0 0 0 0 
0 0 0 0 0 0 0 0 0 
0 0 0 0 0 0 0 0 0 
0 0 0 0 0 0 0 0 0 
0 0 0 0 0 0 0 0 0 
0 0 0 0 0 0 0 0 0 
0 0 0 0 0 0 0 0 0 
0 0 0 0 0 0 0 0 0 
0 0 0 0 0 0 0 0 0 
0 0 0 0 0 0 0 0 0 
0 0 0 0 0 0 0 0 0 
0 0 0 0 0 0 0 0 0 
0 0 0 0 0 0 0 0 0 
0 0 0 0 0 0 0 0 0 
0 0 0 0 0 0 0 0 0 
0 0 0 0 0 0 0 0 0 
0 0 0 0 0 0 0 0 0 
0 0 0 0 0 0 0 0 0 
0 0 0 0 0 0 0 0 0 
0 0 0 0 0 0 0 0 0 
0 0 0 0 0 0 0 0 0 
0 0 0 0 0 0 0 0 0 
0 0 0 0 0 0 0 0 0 
0 0 0 0 0 0 0 0 0 
0 0 0 0 0 0 0 0 0 
0 0 0 0 0 0 0 0 0 
0 0 0 0 0 0 0 0 0 
0 0 0 0 0 0 0 0 0 
0 0 0 0 0 0 0 0 0 
0 0 0 0 0 0 0 0 0 
0 0 0 0 0 0 0 0 0 
0 0 0 0 0 0 0 0 0 
0 0 0 0 0 0 0 0 0 
0 0 0 0 0 0 0 0 0 
0 0 0 0 0 0 0 0 0 
0 0 0 0 0 0 0 0 0 
0 0 0 0 0 0 0 0 0 
0 0 0 0 0 0 0 0 0 
0 0 0 0 0 0 0 0 0 
0 0 0 0 0 0 0 0 0 
0 0 0 0 0 0 0 0 0 
0 0 0 0 0 0 0 0 0 
0 0 0 0 0 0 0 0 0 
0 0 0 0 0 0 0 0 0 
0 0 0 0 0 0 0 0 0 
0 0 0 0 0 0 0 0 0 
0 0 0 0 0 0 0 0 0 
0 0 0 0 0 0 0 0 0 
0 0 0 0 0 0 0 0 0 
0 0 0 0 0 0 0 0 0 
0 0 0 0 0 0 0 0 0 
0 0 0 0 0 0 0 0 0 
0 0 0 0 0 0 0 0 0 
0 0 0 0 0 0 0 0 0 
0 0 0 0 0 0 0 0 0 
0 0 0 0 0 0 0 0 0 
0 0 0 0 0 0 0 0 0 
0 0 0 0 0 0 0 0 0 
0 0 0 0 0 0 0 0 0 
0 0 0 0 0 0 0 0 0 
0 0 0 0 0 0 0 0 0 
0 0 0 0 0 0 0 0 0 
0 0 0 0 0 0 0 0 0 
0 0 0 0 0 0 0 0 0 
0 0 0 0 0 0 0 0 0 
0 0 0 0 0 0 0 0 0 
0 0 0 0 0 0 0 0 0 
0 0 0 0 0 0 0 0 0 
0 0 0 0 0 0 0 0 0 
0 0 0 0 0 0 0 0 0 
0 0 0 0 0 0 0 0 0 
0 0 0 0 0 0 0 0 0 
0 0 0 0 0 0 0 0 0 
0 0 0 0 0 0 0 0 0 
0 0 0 0 0 0 0 0 0 
0 0 0 0 0 0 0 0 0 
0 0 0 0 0 0 0 0 0 
0 0 0 0 0 0 0 0 0 
0 0 0 0 0 0 0 0 0 
0 0 0 0 0 0 0 0 0 
0 0 0 0 0 0 0 0 0 
0 0 0 0 0 0 0 0 0 
0 0 0 0 0 0 0 0 0 
0 0 0 0 0 0 0 0 0 
0 0 0 0 0 0 0 0 0 
0 0 0 0 0 0 0 0 0 
0 0 0 0 0 0 0 0 0 
0 0 0 0 0 0 0 0 0 
0 0 0 0 0 0 0 0 0 
0 0 0 0 0 0 0 0 0 
0 0 0 0 0 0 0 0 0 
0 0 0 0 0 0 0 0 0 
0 0 0 0 0 0 0 0 0 
0 0 0 0 0 0 0 0 0 
0 0 0 0 0 0 0 0 0 
0 0 0 0 0 0 0 0 0 
0 0 0 0 0 0 0 0 0 
0 0 0 0 0 0 0 0 0 
0 0 0 0 0 0 0 0 0 
0 0 0 0 0 0 0 0 0 
0 0 0 0 0 0 0 0 0 
0 0 0 0 0 0 0 0 0 
0 0 0 0 0 0 0 0 0 
0 0 0 0 0 0 0 0 0 
0 0 0 0 0 0 0 0 0 
0 0 0 0 0 0 0 0 0 
0 0 0 0 0 0 0 0 0 
0 0 0 0 0 0 0 0 0 
0 0 0 0 0 0 0 0 0 
0 0 0 0 0 0 0 0 0 
0 0 0 0 0 0 0 0 0 
0 0 0 0 0 0 0 0 0 
0 0 0 0 0 0 0 0 0 
0 0 0 0 0 0 0 0 0 
0 0 0 0 0 0 0 0 0 
0 0 0 0 0 0 0 0 0 
0 0 0 0 0 0 0 0 0 
0 0 0 0 0 0 0 0 0 
0 0 0 0 0 0 0 0 0 
0 0 0 0 0 0 0 0 0 
0 0 0 0 0 0 0 0 0 
0 0 0 0 0 0 0 0 0 
0 0 0 0 0 0 0 0 0 
0 0 0 0 0 0 0 0 0 
0 0 0 0 0 0 0 0 0 
0 0 0 0 0 0 0 0 0 
0 0 0 0 0 0 0 0 0 
0 0 0 0 0 0 0 0 0 
0 0 0 0 0 0 0 0 0 
0 0 0 0 0 0 0 0 0 
0 0 0 0 0 0 0 0 0 
0 0 0 0 0 0 0 0 0 
0 0 0 0 0 0 0 0 0 
0 0 0 0 0 0 0 0 0 
0 0 0 0 0 0 0 0 0 
0 0 0 0 0 0 0 0 0 
0 0 0 0 0 0 0 0 0 
0 0 0 0 0 0 0 0 0 
0 0 0 0 0 0 0 0 0 
0 0 0 0 0 0 0 0 0 
0 0 0 0 0 0 0 0 0 
0 0 0 0 0 0 0 0 0 
0 0 0 0 0 0 0 0 0 
0 0 0 0 0 0 0 0 0 
0 0 0 0 0 0 0 0 0 
0 0 0 0 0 0 0 0 0 
0 0 0 0 0 0 0 0 0 
0 0 0 0 0 0 0 0 0 
0 0 0 0 0 0 0 0 0 
0 0 0 0 0 0 0 0 0 
0 0 0 0 0 0 0 0 0 
0 0 0 0 0 0 0 0 0 
0 0 0 0 0 0 0 0 0 
0 0 0 0 0 0 0 0 0 
0 0 0 0 0 0 0 0 0 
0 0 0 0 0 0 0 0 0 
0 0 0 0 0 0 0 0 0 
0 0 0 0 0 0 0 0 0 
0 0 0 0 0 0 0 0 0 
0 0 0 0 0 0 0 0 0 
0 0 0 0 0 0 0 0 0 
0 0 0 0 0 0 0 0 0 
0 0 0 0 0 0 0 0 0 
0 0 0 0 0 0 0 0 0 
0 0 0 0 0 0 0 0 0 
0 0 0 0 0 0 0 0 0 
0 0 0 0 0 0 0 0 0 
0 0 0 0 0 0 0 0 0 
0 0 0 0 0 0 0 0 0 
0 0 0 0 0 0 0 0 0 

v 3 837 double
-0.966651 0.0833861 -0.408906 -0.993254 0.191285 -0.44866 -0.89171 -0.0749335 -0.38662 
-1.16521 -0.0614088 -1.82128 -1.02826 -0.149685 -1.76287 -1.09996 0.0665071 -1.83051 
-1.11331 -0.0954678 -1.79606 -0.949705 0.0649625 -1.76358 -1.09412 -0.239568 -1.84025 
-1.18677 -0.213474 -1.5233 -1.2027 -0.255341 -1.73412 -0.962506 0.0404147 -1.73806 
-0.997688 0.0583755 -1.67663 -0.936981 0.122637 -1.71873 -1.05961 0.0125691 -1.68467 
-1.33894 0.156295 -1.80309 -1.11199 0.086525 -1.65211 -1.15053 -0.090372 -1.56782 
-1.08461 -0.0507342 -1.74527 -0.949585 0.0400099 -1.59918 -1.15484 0.0832023 -1.59388 
-0.925117 -0.0359711 -1.59517 -1.07563 -0.0113252 -1.56102 -1.04158 -0.0208647 -1.59208 
-1.13651 -0.00933753 -1.60917 -0.984412 -0.108053 -1.59857 -0.914995 0.222767 -1.66155 
-1.10737 -0.0998359 -1.48669 -1.09179 -0.013483 -1.48019 -1.06896 0.0278313 -1.68625 
-1.01886 -0.0585147 -1.52185 -0.916449 0.0788902 -1.4896 -1.07126 0.0467332 -1.54625 
-1.08208 0.0744159 -1.4753 -0.909522 0.0872093 -1.50617 -1.10278 0.0110983 -1.49778 
-0.929603 -0.0440289 -1.47163 -0.956295 -0.0831273 -1.47699 -1.11765 0.0252541 -1.46113 
-1.03857 -0.00666781 -1.34462 -0.924102 -0.0507259 -1.42941 -0.976943 0.290424 -1.48782 
-1.01457 -0.0107964 -1.44148 -1.23432 -0.0694596 -1.44051 -1.09844 0.0183118 -1.37854 
-1.06704 0.0631375 -1.38007 -1.11162 0.0444094 -1.37435 -1.00808 0.0148176 -1.3876 
-0.934027 -0.0827047 -1.44081 -1.09406 0.0147668 -1.37856 -1.06628 0.0719716 -1.3478 
-1.05797 0.0625611 -1.34914 -0.973923 -0.000797317 -1.36509 -1.09174 0.0550328 -1.34687 
-1.02893 -0.125442 -1.35612 -1.24324 -0.0486225 -1.45234 -1.02869 0.0729429 -1.31608 
-1.00893 -0.0112386 -1.31294 -0.997815 0.0273648 -1.31326 -0.976475 0.0339275 -1.35166 
-0.900658 0.0044599 -1.29711 -1.15883 0.10086 -1.32286 -1.06084 -0.0141527 -1.27898 
-1.00642 0.0552764 -1.26054 -0.921749 0.0429546 -1.2699 -0.985938 0.00581331 -1.26568 
-1.02866 0.0202123 -1.2705 -1.06831 -0.0185623 -1.29087 -1.16128 0.128801 -1.29879 
-0.981977 -0.0137255 -1.24452 -0.993695 -0.024701 -1.2266 -0.925244 -0.0175386 -1.17675 
-0.981044 0.0319056 -1.23813 -1.00614 -0.0220972 -1.21765 -0.943883 0.0467194 -1.23071 
-1.29362 -0.140283 -1.13388 -1.23744 0.213828 -1.2758 -0.969808 -0.0651305 -1.2137 
-0.954358 -0.138168 -1.12538 -0.976175 -0.0118911 -1.1824 -0.931554 0.0505228 -1.16364 
-1.04384 -0.0894427 -1.09052 -0.921481 0.0210106 -1.11946 -1.12226 0.0363547 -1.06832 
-1.056 0.0240223 -1.10894 -1.06868 0.016776 -1.10598 -0.978839 0.0393741 -1.14491 
-0.990588 -0.208452 -1.09925 -1.12209 -0.00457418 -1.07994 -1.00993 0.0911743 -1.08665 
-1.04587 0.0279668 -1.06631 -1.03793 0.0348701 -1.04245 -1.00366 0.0399991 -1.06269 
-1.03136 0.0523968 -1.02048 -1.08179 0.0011668 -1.03968 -1.11169 -0.00999213 -0.979597 
-1.12596 0.0628153 -0.921632 -1.04363 -0.0841873 -0.986606 -1.11979 -0.0935339 -1.06799 
-1.3418 -0.0269543 -1.04219 -1.11231 0.0636242 -0.949973 -0.983192 0.135115 -0.923083 
-0.950107 0.144321 -0.963871 -1.11665 -0.00812778 -0.956961 -1.12559 0.117598 -0.941506 
-0.675404 0.0146539 -0.84772 -1.10829 -0.0886196 -0.942719 -1.03879 -0.0624765 -0.909351 
-1.01666 -0.0134878 -0.909362 -1.0128 0.046232 -0.908596 -0.913284 0.158517 -0.863993 
-1.21138 -0.036323 -0.914675 -1.27205 0.0973979 -1.01271 -1.14581 0.0784046 -0.988037 
-0.959101 -0.0561126 -0.808212 -0.884423 0.121763 -0.748654 -1.12468 -0.0779587 -0.704604 
-1.35203 -0.0695925 -0.986467 -1.10868 0.0905814 -0.788708 -1.25129 0.270031 -0.961414 
-0.895889 0.310672 -0.780863 -0.907598 0.112827 -0.689248 -0.942971 0.0839076 -0.693783 
-0.944161 -0.00762944 -0.702502 -0.823659 0.0731669 -0.758587 -0.989484 0.00553588 -0.772575 
-0.932838 0.0216698 -0.68137 -0.973001 0.0344399 -0.62935 -1.04873 0.148318 -0.620485 
-0.965959 0.0681005 -0.648179 -0.931499 -0.0272722 -0.632181 -0.956315 -0.0149703 -0.636391 
-1.18148 -0.0190746 -0.704141 -1.12412 -0.143444 -0.778552 -1.29408 0.0651611 -0.752417 
-1.07387 0.0506401 -0.604233 -0.877349 0.0163809 -0.511877 -0.935638 0.000671779 -0.602931 
-0.885774 -0.00154267 -0.562698 -0.929694 0.0610427 -0.543026 -0.926939 -0.0231175 -0.576984 
-0.91901 -0.0042973 -0.512718 -0.9126 -0.0250011 -0.558892 -0.884407 0.00529966 -0.608561 
-0.937251 -0.0339002 -0.601901 -1.1024 -0.138919 -0.586152 -0.954813 0.0805278 -0.666646 
-0.884506 0.0752088 -0.570116 -1.05757 -0.000948923 -0.604384 -1.0204 -0.012736 -0.503483 
-0.972976 -0.0142842 -0.527632 -1.05786 0.0379988 -0.508584 -0.876229 -0.00189348 -0.481 
-0.901895 -0.0256766 -0.448649 -0.854043 -0.00927393 -0.491459 -0.852474 -0.0938777 -0.479906 
-0.810185 -0.0419336 -0.383025 -0.9049 0.0136409 -0.454978 -0.900133 -0.0832099 -0.391908 
-0.749397 -0.0174706 -0.411828 -0.965167 -0.0358509 -0.547801 -0.858477 0.0573318 -0.431402 
-0.826303 -0.012427 -0.490271 -0.96418 0.0979962 -0.527462 -1.10587 -0.100755 -0.50662 
-1.00268 0.089811 -0.530909 -1.0982 -0.0996367 -0.759649 -1.08716 -0.00415076 -0.447528 
-1.00563 -0.0210287 -0.429981 -0.855435 -0.00685512 -0.387235 -0.916644 -0.0103381 -0.415994 
-0.896124 0.00286695 -0.397596 -0.957364 -0.00680287 -0.404736 -1.0068 -0.000375359 -0.423748 
-0.898938 0.0126997 -0.436987 -0.922572 0.027891 -0.387621 -0.979736 0.0128706 -0.412459 
-0.781319 0.0450295 -0.38436 -0.886691 0.0591011 -0.458264 -0.994172 -0.0501048 -0.427158 
-1.09358 0.0238846 -0.426572 -0.988169 0.0530194 -0.343335 -1.16309 0.0466812 -0.436249 
-1.02121 0.095348 -0.556039 -1.04418 -0.00740197 -0.472975 -1.01279 0.0250137 -0.410304 
-1.06723 -0.00482738 -0.412334 -1.28246 0.106436 -0.445936 -1.00011 0.0689521 -0.423767 
-1.06546 -0.0588697 -0.4397 -1.36071 0.16294 -0.597371 -0.973644 0.03399 -0.406387 
-0.967102 0.0344552 -0.424026 -0.964218 0.036831 -0.403442 -0.920308 0.027334 -0.38564 
-1.0686 0.0143421 -0.377243 -1.17985 -0.0939371 -0.526676 -1.17979 -0.0950491 -0.512006 
-1.03026 0.0619504 -0.448276 -1.0131 0.0634271 -0.417351 -1.15527 -0.102764 -0.440578 
-0.921653 0.12408 -0.430892 -0.909054 0.224588 -0.394138 -1.15911 -0.0751748 -0.486547 
-1.06659 -0.0480659 -0.425816 -0.97101 0.000299058 -0.409435 -1.06566 0.0231498 -0.447709 
-1.03373 -0.0106586 -0.436995 -1.02841 -0.0720076 -0.437955 -0.967639 -0.0192527 -0.409589 
-1.06997 -0.0339623 -0.452977 -0.914814 -0.00328805 -0.382604 -0.898655 0.0600666 -0.346402 
-0.828068 0.0175332 -0.325012 -1.05229 0.120888 -0.494315 -1.02962 0.0688619 -0.444824 
-1.05389 0.0289246 -0.445199 -0.996289 -0.0348014 -0.418907 -1.01694 -0.0313364 -0.427686 
-0.978982 -0.165002 -0.423362 -0.970807 -0.0840407 -0.433744 -1.08366 0.00731675 -0.456416 
-0.914583 -0.0376298 -0.38852 -0.985047 -0.186713 -0.464789 -0.966022 0.0117188 -0.407656 
-1.05485 0.0212066 -0.446007 -0.990924 -0.0355962 -0.417117 -0.764812 -0.0623714 -0.327091 
-1.0173 -0.00315499 -0.425726 -1.03008 -0.0191128 -0.423355 -1.22297 0.0142245 -0.479887 
-1.10255 0.0249371 -0.464425 -0.994948 -0.0145894 -0.412106 -0.974278 -0.0100985 -0.404892 
-0.767132 -0.00466007 -0.322284 -1.0106 0.0306368 -0.423343 -1.03053 0.0400563 -0.423068 
-1.08096 -0.0996246 -0.479767 -1.05893 -0.0256432 -0.435128 -1.0238 -0.0511498 -0.426878 
-1.15907 -0.0503328 -0.486164 -1.13931 0.200309 -0.523422 -0.964791 0.0725931 -0.418415 
-0.776022 -0.00741882 -0.323755 -0.795102 0.0902138 -0.340966 -1.00241 -0.130076 -0.624193 
-0.979519 0.0904573 -0.399313 -1.01266 0.114435 -0.419174 -1.21164 -0.268879 -0.547241 
-0.974819 0.516192 -0.508139 -1.07934 0.000468309 -0.434885 -0.835234 -0.0286272 -0.344369 
-1.1842 0.0561798 -0.501606 -1.02814 0.00734113 -0.424881 -0.751439 0.00929312 -0.289982 
-0.879837 0.0367092 -0.374665 -0.840337 0.0828495 -0.355605 -0.907103 0.0381415 -0.382971 
-1.00647 -0.152266 -0.323894 -0.995997 0.0109178 -0.416356 -0.80081 -0.0620285 -0.333386 
-1.03474 -0.159602 -0.463033 -1.24599 -0.0442349 -0.517635 -0.984489 0.104253 -0.375804 
-1.02201 0.0161061 -0.404259 -1.08068 0.223749 -0.515474 -0.889472 0.0710795 -0.31897 
-0.849974 0.0762723 -0.366836 -0.910774 0.0632655 -0.391184 -0.631031 -0.00222056 -0.30383 
-0.995271 -0.0197075 -0.41511 -0.987301 0.0685646 -0.341528 -1.0217 -0.0970258 -0.439169 
-0.941705 -0.00611998 -0.408063 -0.995841 0.0134037 -0.193972 -0.675674 -0.10742 -0.280516 
-0.752772 -0.0183997 -0.31573 -0.911618 -0.0316743 -0.382762 -0.995 0.0732331 -0.410159 
-0.948943 0.050173 -0.394156 -1.02979 0.248041 -0.52468 -0.97146 -0.0128349 -0.382682 
-0.882465 0.0911956 -0.446552 -0.966825 -0.0290518 -0.374741 -0.719563 0.00490915 -0.317355 
-0.877278 -0.17362 -0.359447 -0.908266 0.143626 -0.146309 -0.865272 0.0689166 -0.359697 
-1.0215 -0.0425455 -0.437673 -0.955301 -0.00123408 -0.396286 -1.02277 0.0779224 -0.310859 
-0.949756 0.00978695 -0.394888 -0.936477 -0.0266028 -0.386562 -0.887899 0.0910053 -0.502785 
-0.858192 -0.0105311 -0.356802 -0.811741 0.0326842 -0.346734 -0.883735 0.0726531 -0.361849 
-0.934839 -0.0448223 -0.40126 -0.877253 0.0908434 -0.363787 -0.862487 -0.0775319 -0.371741 
-0.978991 -0.0364486 -0.422026 -0.982231 -0.0197158 -0.431294 -1.15626 0.0131462 -0.445695 
-0.981444 0.0060818 -0.402857 -0.900765 -0.0133582 -0.384184 -0.865004 -0.0287723 -0.367167 