# vtk DataFile Version 4.0
Generated by LIGGGHTS
ASCII
DATASET POLYDATA
POINTS 671 float
-0.481185 0.000400748 -0.369139 -0.460719 0.000189317 -0.352303 -0.483551 -0.0447514 -0.350617 
-0.466278 0.0312641 -0.348317 -0.448565 0.0229929 -0.335685 -0.432432 -0.00197826 -0.33255 
-0.45206 0.0302315 -0.331382 -0.445211 0.0341614 -0.332573 -0.430648 0.0173959 -0.321333 
-0.416586 -0.0357202 -0.308368 -0.430371 0.0138918 -0.310831 -0.426074 -0.0294874 -0.30223 
-0.411407 -0.0101753 -0.301213 -0.40492 -0.0203293 -0.297794 -0.396459 0.0124787 -0.296966 
-0.406311 0.0202415 -0.294398 -0.409646 0.0226943 -0.298979 -0.399038 -0.0267286 -0.294152 
-0.400862 0.0141895 -0.292596 -0.391805 -0.00629665 -0.287908 -0.397522 0.00728836 -0.290105 
-0.390421 -0.00673514 -0.284231 -0.379938 0.00246372 -0.277498 -0.378588 0.0109967 -0.278449 
-0.386966 0.0265358 -0.276665 -0.389058 0.032311 -0.277561 -0.39697 -0.0435926 -0.275851 
-0.375913 -0.0137956 -0.27323 -0.36619 -0.00350984 -0.276016 -0.372396 0.00205529 -0.271343 
-0.379995 0.0166489 -0.273742 -0.392693 0.0507953 -0.274168 -0.3749 -0.00722499 -0.269519 
-0.368661 -0.0254929 -0.264498 -0.364443 0.00379116 -0.264582 -0.367944 0.0166984 -0.266916 
-0.359921 0.00284004 -0.261484 -0.364135 0.0132828 -0.261985 -0.361249 0.023475 -0.260323 
-0.352214 -0.00121025 -0.257489 -0.348522 0.00285179 -0.255917 -0.350171 -0.0132988 -0.252968 
-0.345429 -0.00898557 -0.253157 -0.341041 0.000979965 -0.251206 -0.344244 0.00504193 -0.251548 
-0.34669 -0.0234327 -0.250401 -0.338919 -0.00953163 -0.249867 -0.334752 -0.00787379 -0.247079 
-0.340742 0.0108199 -0.250386 -0.336 -0.0119302 -0.244948 -0.330949 -0.0110901 -0.245007 
-0.321576 -0.000406313 -0.241727 -0.33389 0.00196805 -0.24623 -0.326484 0.00311787 -0.243737 
-0.338538 0.0262588 -0.244493 -0.342581 0.0275226 -0.247014 -0.379731 -0.0569823 -0.244878 
-0.330936 -0.0284831 -0.240184 -0.323935 -0.0196199 -0.240596 -0.32183 -0.0171727 -0.2402 
-0.336633 -0.0110884 -0.241982 -0.317666 -0.00863244 -0.239626 -0.314912 -0.00164015 -0.238872 
-0.323313 0.00399306 -0.242229 -0.328711 0.0202133 -0.242623 -0.343112 0.0424574 -0.241123 
-0.322841 -0.0290863 -0.23672 -0.318064 -0.0124533 -0.238277 -0.310113 -0.0114341 -0.236128 
-0.314282 0.00155459 -0.238569 -0.311661 0.00254356 -0.237368 -0.313271 0.013216 -0.237401 
-0.319481 0.0270609 -0.237007 -0.300421 -0.0109239 -0.232196 -0.302744 0.00919685 -0.232139 
-0.319241 0.0313461 -0.233741 -0.296122 -0.0147905 -0.228878 -0.293689 -0.00769874 -0.229706 
-0.298716 0.00865838 -0.231558 -0.300592 0.0126003 -0.2321 -0.281536 -0.017788 -0.223413 
-0.283416 -0.00937807 -0.225213 -0.280493 -0.00762744 -0.224144 -0.290442 -0.00541521 -0.227332 
-0.293239 0.0257294 -0.225564 -0.284011 -0.0277501 -0.222339 -0.284149 -0.0215048 -0.222574 
-0.274886 -0.0173198 -0.220727 -0.28268 -0.0133812 -0.22316 -0.278085 -0.0110071 -0.222794 
-0.295801 -0.0100775 -0.227567 -0.280481 -0.00331389 -0.223203 -0.271546 -0.00482061 -0.220472 
-0.276636 -0.000589414 -0.221653 -0.279458 0.00504581 -0.223668 -0.277116 0.00727101 -0.222575 
-0.279253 0.0136727 -0.221933 -0.278487 0.0219923 -0.221235 -0.302917 -0.0488389 -0.221464 
-0.2873 -0.0399667 -0.219588 -0.284743 -0.0349976 -0.219223 -0.275783 -0.0211354 -0.220385 
-0.271807 -0.0179841 -0.219326 -0.26604 -0.0108116 -0.217762 -0.286159 -0.009686 -0.221831 
-0.270669 0.00627628 -0.218853 -0.26695 0.00312642 -0.218523 -0.267513 0.0101237 -0.21839 
-0.27003 0.0124851 -0.219277 -0.268633 0.0150044 -0.217395 -0.283388 0.0307118 -0.220054 
-0.27794 0.0282816 -0.218964 -0.278795 0.0333563 -0.21843 -0.26999 -0.0285272 -0.216283 
-0.267426 -0.0250813 -0.216136 -0.259076 -0.0170125 -0.214118 -0.256947 -0.0165039 -0.211911 
-0.263294 -0.0112481 -0.216562 -0.263891 0.00862949 -0.216971 -0.261108 0.00788626 -0.215801 
-0.256172 0.00995907 -0.213665 -0.263575 0.0142808 -0.216297 -0.261109 -0.01994 -0.214137 
-0.253059 -0.0172123 -0.211526 -0.260951 -0.0118688 -0.212595 -0.257431 -0.0102347 -0.211223 
-0.255105 -0.0106938 -0.2132 -0.25135 -0.0119122 -0.211374 -0.25038 0.00255927 -0.211539 
-0.257848 0.0139671 -0.213942 -0.260411 0.0207154 -0.213982 -0.28733 -0.0549601 -0.211836 
-0.255582 -0.0376186 -0.207641 -0.253982 -0.0317794 -0.207695 -0.248414 -0.0303187 -0.206758 
-0.245956 -0.0223978 -0.207628 -0.244631 -0.0120829 -0.208642 -0.245773 -0.0058729 -0.209541 
-0.24325 0.00129473 -0.207493 -0.239622 0.00288766 -0.206942 -0.247213 0.00673326 -0.210032 
-0.249849 0.0300385 -0.207515 -0.246337 -0.0359214 -0.204116 -0.266248 -0.0201211 -0.204846 
-0.243507 -0.0179692 -0.206233 -0.237674 0.0127165 -0.205619 -0.256047 0.0469207 -0.203086 
-0.225944 -0.0125303 -0.200531 -0.224176 -0.00581325 -0.199353 -0.228622 -0.00314905 -0.201398 
-0.230597 0.0049161 -0.202793 -0.22873 0.011074 -0.200936 -0.234017 0.0155669 -0.202587 
-0.229449 0.0264204 -0.199989 -0.240312 0.0406844 -0.199253 -0.233959 -0.0367354 -0.199077 
-0.225049 -0.0157832 -0.195 -0.22013 -0.0104687 -0.198246 -0.217477 -0.00802941 -0.195128 
-0.212782 -0.00537774 -0.195725 -0.219783 -0.00377346 -0.197633 -0.215834 0.0034772 -0.195857 
-0.216286 0.00856564 -0.195956 -0.225471 0.0175772 -0.198743 -0.22903 0.0222254 -0.199614 
-0.26213 0.0601225 -0.199123 -0.222938 -0.0374673 -0.193273 -0.217021 -0.0259896 -0.194809 
-0.210737 -0.0127902 -0.194157 -0.210017 -0.00724148 -0.193279 -0.210431 0.00534158 -0.194625 
-0.208841 0.0100726 -0.193709 -0.21292 0.0148196 -0.19489 -0.213899 0.0264634 -0.193475 
-0.215843 -0.000873119 -0.191944 -0.229369 0.0149237 -0.188953 -0.213295 -0.00656678 -0.186472 
-0.211204 -0.00256313 -0.191336 -0.213884 0.0575024 -0.182357 -0.224609 0.058464 -0.184667 
-0.222601 0.0109842 -0.181622 -0.219694 0.0253658 -0.18182 -0.216515 0.0678874 -0.177017 
-0.207608 -0.000268038 -0.192408 -0.207384 -0.0428412 -0.185157 -0.207354 -0.0157842 -0.18969 
-0.201904 0.00144335 -0.191097 -0.202182 0.0257949 -0.188737 -0.20175 -0.0105426 -0.190622 
-0.20165 0.0620971 -0.175241 -0.201133 -0.00255654 -0.190759 -0.201006 0.00647632 -0.189641 
-0.0573689 0.0261133 -0.127112 -0.0753297 0.0529131 -0.129223 -0.19991 -0.0142844 -0.18947 
-0.0793876 -0.00418104 -0.12642 -0.0737375 0.0395205 -0.128097 -0.0492434 0.0165743 -0.126056 
-0.0881527 -0.0357096 -0.127854 -0.0598001 0.00809016 -0.127525 -0.0523832 9.88536e-05 -0.127904 
-0.194645 -0.00931759 -0.186709 -0.1945 -0.00384427 -0.186794 -0.196907 0.000489303 -0.187868 
-0.192635 0.000388835 -0.187167 -0.194665 0.00488542 -0.186967 -0.190075 0.00673557 -0.186062 
-0.192755 0.00862875 -0.187014 -0.190039 0.00953704 -0.185011 -0.198603 0.0105834 -0.188148 
-0.199541 0.0190662 -0.187724 -0.183462 -0.00893806 -0.183159 -0.185734 -0.00547873 -0.184186 
-0.189173 -0.0016616 -0.184633 -0.181643 0.00544089 -0.182573 -0.181138 0.0186678 -0.181196 
-0.193337 -0.0432486 -0.179304 -0.18335 -0.0322604 -0.17839 -0.187556 -0.0320329 -0.181258 
-0.178935 -0.0191461 -0.180135 -0.178023 -0.0103155 -0.180799 -0.175539 -0.00841865 -0.179831 
-0.177684 -0.00471655 -0.179701 -0.174215 0.00778852 -0.178859 -0.171079 0.00688093 -0.176825 
-0.178739 0.0153158 -0.180498 -0.182228 0.0249668 -0.180532 -0.198637 0.0507485 -0.179881 
-0.181522 -0.0404103 -0.1765 -0.169678 -0.0219381 -0.174736 -0.16872 -0.0117039 -0.175617 
-0.162641 -0.0110688 -0.174204 -0.167286 -0.00457453 -0.176488 -0.174725 -0.000112985 -0.177183 
-0.162616 -6.56092e-05 -0.174538 -0.173032 0.00348326 -0.177844 -0.166992 0.00600574 -0.176331 
-0.179622 0.00784262 -0.177617 -0.172878 0.0112965 -0.177258 -0.167253 0.0102474 -0.176084 
-0.163822 0.0170004 -0.174098 -0.172625 0.0268753 -0.175667 -0.172839 0.0346811 -0.174697 
-0.183006 0.0398724 -0.177276 -0.068381 -0.00419397 -0.126318 -0.163956 -0.0197239 -0.17387 
-0.160968 -0.0150444 -0.172107 -0.156834 -0.0144323 -0.171516 -0.155068 -0.0119898 -0.170992 
-0.166865 -0.0112067 -0.170894 -0.152292 -0.00854238 -0.170001 -0.153804 -0.00425305 -0.170884 
-0.158627 -0.00277216 -0.172849 -0.16231 0.00823894 -0.174206 -0.160205 0.0182005 -0.171416 
-0.174391 0.0248931 -0.169094 -0.165472 0.029287 -0.172597 -0.165899 0.0365167 -0.171334 
-0.147298 -0.0201128 -0.166849 -0.153225 -0.015793 -0.169813 -0.148231 -0.0149294 -0.167829 
-0.151927 -0.012234 -0.16851 -0.150162 -0.00194022 -0.169356 -0.154715 0.00303719 -0.170091 
-0.163986 0.0115948 -0.171625 -0.147868 0.0117931 -0.167898 -0.155734 0.0220361 -0.170142 
-0.153795 0.0275085 -0.168211 -0.166394 -0.0514828 -0.16658 -0.143886 -0.032559 -0.163185 
-0.144634 -0.0219597 -0.165444 -0.142457 -0.0150232 -0.165352 -0.151674 -0.0133149 -0.164475 
-0.140737 -0.0125342 -0.16487 -0.138874 -0.00737857 -0.163361 -0.146045 -0.00622054 -0.166418 
-0.136586 -0.00387406 -0.163573 -0.150259 0.00226633 -0.167687 -0.143567 0.000543122 -0.166525 
-0.138759 0.00133567 -0.164516 -0.13711 0.00406927 -0.163743 -0.139754 0.010617 -0.16459 
-0.138907 0.00774864 -0.164323 -0.164489 0.0145866 -0.164242 -0.155857 0.0189099 -0.167786 
-0.144401 0.0144849 -0.165091 -0.143904 0.0245457 -0.163674 -0.152015 0.0319825 -0.166622 
-0.152567 0.0359297 -0.165992 -0.140361 -0.0221105 -0.163437 -0.135797 -0.014074 -0.162656 
-0.134738 -0.0178774 -0.161862 -0.148089 -0.0123293 -0.162271 -0.132199 -0.0139976 -0.160091 
-0.133272 -0.00714928 -0.162086 -0.127205 -0.00419446 -0.159635 -0.154136 0.000357166 -0.164407 
-0.134365 0.00165091 -0.161622 -0.13649 0.010462 -0.162151 -0.132109 0.00856886 -0.160328 
-0.136503 0.015475 -0.161667 -0.133233 0.0192976 -0.159791 -0.163743 0.0226275 -0.165433 
-0.140437 0.030159 -0.162118 -0.151518 0.0335632 -0.161319 -0.134239 -0.0370212 -0.158153 
-0.130286 -0.0365457 -0.156624 -0.128749 -0.0231281 -0.158577 -0.14283 -0.019021 -0.162136 
-0.130664 -0.0188971 -0.158901 -0.125423 -0.00934847 -0.157549 -0.13669 -0.00675185 -0.1585 
-0.130993 -0.000714373 -0.157764 -0.124644 -0.00250022 -0.158597 -0.121263 -0.00180146 -0.156066 
-0.127815 0.0074864 -0.159624 -0.128535 0.0129959 -0.159659 -0.127006 -0.0326185 -0.154658 
[...]
POINT_DATA 671
FIELD FieldData 7
id 1 671 int
16 30 34 31 3 19 26 68 32 
2 27 108 7 99 22 5 1 33 
21 6 60 23 13 36 28 11 58 
10 142 57 41 38 92 79 40 8 
101 130 48 54 42 4 63 46 14 
67 53 49 44 88 83 134 29 122 
93 59 126 76 20 62 162 50 100 
45 43 75 104 15 18 87 85 148 
72 132 51 114 116 69 70 71 109 
84 35 17 177 61 52 12 166 47 
181 64 156 77 158 174 154 37 163 
147 39 74 94 96 192 65 145 73 
133 82 91 233 146 120 112 125 175 
111 55 25 150 95 245 187 167 188 
138 200 136 118 98 81 137 176 86 
110 196 182 244 143 157 222 231 103 
89 274 139 186 78 90 257 227 66 
198 140 159 203 144 204 209 128 153 
127 105 80 124 268 232 224 228 121 
135 97 113 234 270 281 246 265 216 
304 327 201 202 165 171 185 161 170 
183 123 141 421 477 194 428 401 416 
406 480 450 191 117 243 155 164 239 
259 262 178 215 218 211 102 180 206 
230 129 287 119 219 252 152 260 309 
131 271 238 290 205 214 208 149 302 
236 282 314 277 151 220 288 278 258 
199 399 275 189 251 250 254 106 284 
172 289 318 292 223 210 286 212 221 
115 207 190 279 160 184 299 347 320 
315 249 295 169 217 193 168 307 308 
345 333 197 310 300 293 266 256 311 
325 312 225 313 317 229 235 247 272 
240 269 305 267 242 342 323 301 107 
348 365 337 179 253 372 379 285 331 
322 261 355 237 321 241 316 273 248 
297 329 226 291 280 352 213 324 373 
381 374 328 371 338 335 326 330 349 
380 389 264 370 283 173 392 332 319 
294 255 350 303 344 358 359 394 378 
341 334 354 405 413 346 391 336 296 
276 395 298 339 362 384 396 400 376 
388 385 375 382 404 398 432 351 393 
306 367 340 412 369 383 403 408 343 
363 415 409 387 364 397 386 419 446 
478 407 410 356 418 441 360 425 437 
430 402 414 479 390 417 353 435 426 
411 377 452 427 368 463 665 669 671 
661 453 667 668 662 445 674 673 672 
431 666 664 670 464 422 434 460 504 
361 513 663 357 472 657 469 366 429 
490 443 475 500 449 652 195 486 489 
433 494 493 424 442 482 476 492 448 
518 465 444 495 436 468 457 514 517 
423 447 519 420 506 466 503 509 499 
511 455 458 487 440 523 505 454 498 
526 485 438 483 481 516 507 461 459 
530 502 531 501 473 512 508 524 470 
484 462 467 491 439 525 510 515 488 
451 474 497 471 496 532 529 520 528 
527 521 522 263 542 537 534 540 535 
538 456 543 545 539 544 541 553 536 
550 533 549 555 551 546 556 552 557 
548 547 554 565 563 570 558 561 560 
568 567 566 559 569 562 564 577 578 
580 583 582 573 572 581 571 575 576 
574 594 579 596 593 588 591 589 592 
584 586 595 585 590 587 602 603 607 
608 601 600 604 597 599 605 606 619 
609 621 598 617 618 614 620 615 622 
616 610 611 613 630 612 628 623 634 
632 625 635 629 626 627 624 633 631 
637 645 644 642 641 648 639 638 647 
636 643 654 640 659 655 660 646 658 
656 650 653 649 651 
type 1 671 int
1 1 1 1 1 1 1 1 1 
1 1 1 1 1 1 1 1 1 
1 1 1 1 1 1 1 1 1 
1 1 1 1 1 1 1 1 1 
1 1 1 1 1 1 1 1 1 
1 1 1 1 1 1 1 1 1 
1 1 1 1 1 1 1 1 1 
1 1 1 1 1 1 1 1 1 
1 1 1 1 1 1 1 1 1 
1 1 1 1 1 1 1 1 1 
1 1 1 1 1 1 1 1 1 
1 1 1 1 1 1 1 1 1 
1 1 1 1 1 1 1 1 1 
1 1 1 1 1 1 1 1 1 
1 1 1 1 1 1 1 1 1 
1 1 1 1 1 1 1 1 1 
1 1 1 1 1 1 1 1 1 
1 1 1 1 1 1 1 1 1 
1 1 1 1 1 1 1 1 1 
1 1 1 1 1 1 1 1 1 
1 1 1 1 1 1 1 1 1 
1 1 1 1 1 1 1 1 1 
1 1 1 1 1 1 1 1 1 
1 1 1 1 1 1 1 1 1 
1 1 1 1 1 1 1 1 1 
1 1 1 1 1 1 1 1 1 
1 1 1 1 1 1 1 1 1 
1 1 1 1 1 1 1 1 1 
1 1 1 1 1 1 1 1 1 
1 1 1 1 1 1 1 1 1 
1 1 1 1 1 1 1 1 1 
1 1 1 1 1 1 1 1 1 
1 1 1 1 1 1 1 1 1 
1 1 1 1 1 1 1 1 1 
1 1 1 1 1 1 1 1 1 
1 1 1 1 1 1 1 1 1 
1 1 1 1 1 1 1 1 1 
1 1 1 1 1 1 1 1 1 
1 1 1 1 1 1 1 1 1 
1 1 1 1 1 1 1 1 1 
1 1 1 1 1 1 1 1 1 
1 1 1 1 1 1 1 1 1 
1 1 1 1 1 1 1 1 1 
1 1 1 1 1 1 1 1 1 
1 1 1 1 1 1 1 1 1 
1 1 1 1 1 1 1 1 1 
1 1 1 1 1 1 1 1 1 
1 1 1 1 1 1 1 1 1 
1 1 1 1 1 1 1 1 1 
1 1 1 1 1 1 1 1 1 
1 1 1 1 1 1 1 1 1 
1 1 1 1 1 1 1 1 1 
1 1 1 1 1 1 1 1 1 
1 1 1 1 1 1 1 1 1 
1 1 1 1 1 1 1 1 1 
1 1 1 1 1 1 1 1 1 
1 1 1 1 1 1 1 1 1 
1 1 1 1 1 1 1 1 1 
1 1 1 1 1 1 1 1 1 
1 1 1 1 1 1 1 1 1 
1 1 1 1 1 1 1 1 1 
1 1 1 1 1 1 1 1 1 
1 1 1 1 1 1 1 1 1 
1 1 1 1 1 1 1 1 1 
1 1 1 1 1 1 1 1 1 
1 1 1 1 1 1 1 1 1 
1 1 1 1 1 1 1 1 1 
1 1 1 1 1 1 1 1 1 
1 1 1 1 1 1 1 1 1 
1 1 1 1 1 1 1 1 1 
1 1 1 1 1 1 1 1 1 
1 1 1 1 1 1 1 1 1 
1 1 1 1 1 1 1 1 1 
1 1 1 1 1 1 1 1 1 
1 1 1 1 1 
i 3 671 int
0 0 0 0 0 0 0 0 0 
0 0 0 0 0 0 0 0 0 
0 0 0 0 0 0 0 0 0 
0 0 0 0 0 0 0 0 0 
0 0 0 0 0 0 0 0 0 
0 0 0 0 0 0 0 0 0 
0 0 0 0 0 0 0 0 0 
0 0 0 0 0 0 0 0 0 
0 0 0 0 0 0 0 0 0 
0 0 0 0 0 0 0 0 0 
0 0 0 0 0 0 0 0 0 
0 0 0 0 0 0 0 0 0 
0 0 0 0 0 0 0 0 0 
0 0 0 0 0 0 0 0 0 
0 0 0 0 0 0 0 0 0 
0 0 0 0 0 0 0 0 0 
0 0 0 0 0 0 0 0 0 
0 0 0 0 0 0 0 0 0 
0 0 0 0 0 0 0 0 0 
0 0 0 0 0 0 0 0 0 
0 0 0 0 0 0 0 0 0 
0 0 0 0 0 0 0 0 0 
0 0 0 0 0 0 0 0 0 
0 0 0 0 0 0 0 0 0 
0 0 0 0 0 0 0 0 0 
0 0 0 0 0 0 0 0 0 
0 0 0 0 0 0 0 0 0 
0 0 0 0 0 0 0 0 0 
0 0 0 0 0 0 0 0 0 
0 0 0 0 0 0 0 0 0 
0 0 0 0 0 0 0 0 0 
0 0 0 0 0 0 0 0 0 
0 0 0 0 0 0 0 0 0 
0 0 0 0 0 0 0 0 0 
0 0 0 0 0 0 0 0 0 
0 0 0 0 0 0 0 0 0 
0 0 0 0 0 0 0 0 0 
0 0 0 0 0 0 0 0 0 
0 0 0 0 0 0 0 0 0 
0 0 0 0 0 0 0 0 0 
0 0 0 0 0 0 0 0 0 
0 0 0 0 0 0 0 0 0 
0 0 0 0 0 0 0 0 0 
0 0 0 0 0 0 0 0 0 
0 0 0 0 0 0 0 0 0 
0 0 0 0 0 0 0 0 0 
0 0 0 0 0 0 0 0 0 
0 0 0 0 0 0 0 0 0 
0 0 0 0 0 0 0 0 0 
0 0 0 0 0 0 0 0 0 
0 0 0 0 0 0 0 0 0 
0 0 0 0 0 0 0 0 0 
0 0 0 0 0 0 0 0 0 
0 0 0 0 0 0 0 0 0 
0 0 0 0 0 0 0 0 0 
0 0 0 0 0 0 0 0 0 
0 0 0 0 0 0 0 0 0 
0 0 0 0 0 0 0 0 0 
0 0 0 0 0 0 0 0 0 
0 0 0 0 0 0 0 0 0 
0 0 0 0 0 0 0 0 0 
0 0 0 0 0 0 0 0 0 
0 0 0 0 0 0 0 0 0 
0 0 0 0 0 0 0 0 0 
0 0 0 0 0 0 0 0 0 
0 0 0 0 0 0 0 0 0 
0 0 0 0 0 0 0 0 0 
0 0 0 0 0 0 0 0 0 
0 0 0 0 0 0 0 0 0 
0 0 0 0 0 0 0 0 0 
0 0 0 0 0 0 0 0 0 
0 0 0 0 0 0 0 0 0 
0 0 0 0 0 0 0 0 0 
0 0 0 0 0 0 0 0 0 
0 0 0 0 0 0 0 0 0 
0 0 0 0 0 0 0 0 0 
0 0 0 0 0 0 0 0 0 
0 0 0 0 0 0 0 0 0 
0 0 0 0 0 0 0 0 0 
0 0 0 0 0 0 0 0 0 
0 0 0 0 0 0 0 0 0 
0 0 0 0 0 0 0 0 0 
0 0 0 0 0 0 0 0 0 
0 0 0 0 0 0 0 0 0 
0 0 0 0 0 0 0 0 0 
0 0 0 0 0 0 0 0 0 
0 0 0 0 0 0 0 0 0 
0 0 0 0 0 0 0 0 0 
0 0 0 0 0 0 0 0 0 
0 0 0 0 0 0 0 0 0 
0 0 0 0 0 0 0 0 0 
0 0 0 0 0 0 0 0 0 
0 0 0 0 0 0 0 0 0 
0 0 0 0 0 0 0 0 0 
0 0 0 0 0 0 0 0 0 
0 0 0 0 0 0 0 0 0 
0 0 0 0 0 0 0 0 0 
0 0 0 0 0 0 0 0 0 
0 0 0 0 0 0 0 0 0 
0 0 0 0 0 0 0 0 0 
0 0 0 0 0 0 0 0 0 
0 0 0 0 0 0 0 0 0 
0 0 0 0 0 0 0 0 0 
0 0 0 0 0 0 0 0 0 
0 0 0 0 0 0 0 0 0 
0 0 0 0 0 0 0 0 0 
0 0 0 0 0 0 0 0 0 
0 0 0 0 0 0 0 0 0 
0 0 0 0 0 0 0 0 0 
0 0 0 0 0 0 0 0 0 
0 0 0 0 0 0 0 0 0 
0 0 0 0 0 0 0 0 0 
0 0 0 0 0 0 0 0 0 
0 0 0 0 0 0 0 0 0 
0 0 0 0 0 0 0 0 0 
0 0 0 0 0 0 0 0 0 
0 0 0 0 0 0 0 0 0 
0 0 0 0 0 0 0 0 0 
0 0 0 0 0 0 0 0 0 
0 0 0 0 0 0 0 0 0 
0 0 0 0 0 0 0 0 0 
0 0 0 0 0 0 0 0 0 
0 0 0 0 0 0 0 0 0 
0 0 0 0 0 0 0 0 0 
0 0 0 0 0 0 0 0 0 
0 0 0 0 0 0 0 0 0 
0 0 0 0 0 0 0 0 0 
0 0 0 0 0 0 0 0 0 
0 0 0 0 0 0 0 0 0 
0 0 0 0 0 0 0 0 0 
0 0 0 0 0 0 0 0 0 
0 0 0 0 0 0 0 0 0 
0 0 0 0 0 0 0 0 0 
0 0 0 0 0 0 0 0 0 
0 0 0 0 0 0 0 0 0 
0 0 0 0 0 0 0 0 0 
0 0 0 0 0 0 0 0 0 
0 0 0 0 0 0 0 0 0 
0 0 0 0 0 0 0 0 0 
0 0 0 0 0 0 0 0 0 
0 0 0 0 0 0 0 0 0 
0 0 0 0 0 0 0 0 0 
0 0 0 0 0 0 0 0 0 
0 0 0 0 0 0 0 0 0 
0 0 0 0 0 0 0 0 0 
0 0 0 0 0 0 0 0 0 
0 0 0 0 0 0 0 0 0 
0 0 0 0 0 0 0 0 0 
0 0 0 0 0 0 0 0 0 
0 0 0 0 0 0 0 0 0 
0 0 0 0 0 0 0 0 0 
0 0 0 0 0 0 0 0 0 
0 0 0 0 0 0 0 0 0 
0 0 0 0 0 0 0 0 0 
0 0 0 0 0 0 0 0 0 
0 0 0 0 0 0 0 0 0 
0 0 0 0 0 0 0 0 0 
0 0 0 0 0 0 0 0 0 
0 0 0 0 0 0 0 0 0 
0 0 0 0 0 0 0 0 0 
0 0 0 0 0 0 0 0 0 
0 0 0 0 0 0 0 0 0 
0 0 0 0 0 0 0 0 0 
0 0 0 0 0 0 0 0 0 
0 0 0 0 0 0 0 0 0 
0 0 0 0 0 0 0 0 0 
0 0 0 0 0 0 0 0 0 
0 0 0 0 0 0 0 0 0 
0 0 0 0 0 0 0 0 0 
0 0 0 0 0 0 0 0 0 
0 0 0 0 0 0 0 0 0 
0 0 0 0 0 0 0 0 0 
0 0 0 0 0 0 0 0 0 
0 0 0 0 0 0 0 0 0 
0 0 0 0 0 0 0 0 0 
0 0 0 0 0 0 0 0 0 
0 0 0 0 0 0 0 0 0 
0 0 0 0 0 0 0 0 0 
0 0 0 0 0 0 0 0 0 
0 0 0 0 0 0 0 0 0 
0 0 0 0 0 0 0 0 0 
0 0 0 0 0 0 0 0 0 
0 0 0 0 0 0 0 0 0 
0 0 0 0 0 0 0 0 0 
0 0 0 0 0 0 0 0 0 
0 0 0 0 0 0 0 0 0 
0 0 0 0 0 0 0 0 0 
0 0 0 0 0 0 0 0 0 
0 0 0 0 0 0 0 0 0 
0 0 0 0 0 0 0 0 0 
0 0 0 0 0 0 0 0 0 
0 0 0 0 0 0 0 0 0 
0 0 0 0 0 0 0 0 0 
0 0 0 0 0 0 0 0 0 
0 0 0 0 0 0 0 0 0 
0 0 0 0 0 0 0 0 0 
0 0 0 0 0 0 0 0 0 
0 0 0 0 0 0 0 0 0 
0 0 0 0 0 0 0 0 0 
0 0 0 0 0 0 0 0 0 
0 0 0 0 0 0 0 0 0 
0 0 0 0 0 0 0 0 0 
0 0 0 0 0 0 0 0 0 
0 0 0 0 0 0 0 0 0 
0 0 0 0 0 0 0 0 0 
0 0 0 0 0 0 0 0 0 
0 0 0 0 0 0 0 0 0 
0 0 0 0 0 0 0 0 0 
0 0 0 0 0 0 0 0 0 
0 0 0 0 0 0 0 0 0 
0 0 0 0 0 0 0 0 0 
0 0 0 0 0 0 0 0 0 
0 0 0 0 0 0 0 0 0 
0 0 0 0 0 0 0 0 0 
0 0 0 0 0 0 0 0 0 
0 0 0 0 0 0 0 0 0 
0 0 0 0 0 0 0 0 0 
0 0 0 0 0 0 0 0 0 
0 0 0 0 0 0 0 0 0 
0 0 0 0 0 0 0 0 0 
0 0 0 0 0 0 0 0 0 
0 0 0 0 0 0 0 0 0 
0 0 0 0 0 0 0 0 0 
0 0 0 0 0 0 
v 3 671 double
-1.38458 0.0121135 -1.68034 -1.31226 0.152563 -1.57591 -1.39956 0.0102656 -1.60641 
-1.33504 -0.0723053 -1.5881 -1.35171 0.195162 -1.47545 -1.14656 0.0761887 -1.41948 
-1.34235 -0.114898 -1.50261 -1.2104 -0.111715 -1.52093 -1.29371 0.154395 -1.36087 
-1.12274 0.0154003 -1.30319 -1.37864 0.0410424 -1.40568 -1.34684 0.255768 -1.32862 
-1.28265 -0.0239591 -1.2002 -1.29568 0.280331 -1.30858 -1.14007 0.0619945 -1.17367 
-1.25753 0.0630385 -1.12145 -1.26435 0.0221371 -1.24194 -1.18685 -0.0202596 -1.17473 
-1.27086 -0.0159577 -1.14118 -1.17123 0.0260053 -1.08256 -1.17479 0.0230187 -1.06915 
-1.20375 0.00503665 -1.02113 -1.21196 0.0390049 -0.979493 -1.08435 0.0642844 -0.965229 
-1.2302 0.00574051 -1.00379 -1.22067 0.0285474 -1.0092 -1.28551 0.102613 -1.10442 
-1.116 0.019221 -0.909252 -1.36559 -0.0590547 -1.32305 -1.22662 -0.116708 -0.92823 
-1.24643 -0.117866 -0.991768 -1.0323 0.152826 -0.949041 -1.34796 0.269572 -0.968078 
-1.10241 -0.0910185 -0.825518 -1.19979 -0.0555813 -0.855125 -1.22068 -0.298572 -0.956067 
-1.20344 -0.0768672 -0.820441 -1.37075 -0.249623 -0.916626 -1.19319 -0.0892842 -0.827755 
-1.08092 -0.0613343 -0.734102 -1.07951 0.0100131 -0.696901 -1.31844 0.0999611 -0.733118 
-0.973525 -0.054984 -0.651564 -1.1745 -0.054974 -0.659594 -1.20031 -0.116061 -0.693566 
-1.27485 0.17461 -0.78142 -0.950694 -0.0282768 -0.633665 -1.21623 0.0824053 -0.59589 
-1.16531 -0.100774 -0.654292 -1.00125 -0.056749 -0.485536 -1.13593 0.0982091 -0.526785 
-0.909252 -0.0182602 -0.369663 -1.16483 0.0470791 -0.587821 -0.913346 -0.0732549 -0.43901 
-1.11646 -0.190801 -0.546319 -1.277 -0.273313 -0.726669 -1.19839 0.239857 -0.964765 
-1.22816 0.208558 -0.595566 -1.15392 0.253472 -0.518356 -1.16496 0.313566 -0.519808 
-1.07355 0.0243757 -0.473322 -1.14301 0.030749 -0.457886 -1.06527 0.00539807 -0.449885 
-1.08484 0.0562598 -0.466636 -1.14832 -0.0493155 -0.540631 -1.27791 -0.159827 -0.702996 
-1.24851 0.223324 -0.562008 -1.13633 0.0217981 -0.51904 -1.09905 -0.0276129 -0.435493 
-1.06354 0.0396368 -0.445727 -1.03085 -0.0293342 -0.49989 -1.10699 -0.11185 -0.484705 
-1.07708 -0.187861 -0.538655 -1.01915 -0.153704 -0.412112 -1.08597 0.041164 -0.455672 
-1.25689 0.0342867 -0.48855 -0.973338 -0.0177851 -0.406971 -1.06638 0.00788914 -0.449939 
-1.10537 -0.0416871 -0.468495 -1.16425 0.00196868 -0.491407 -0.649568 -0.023986 -0.259778 
-0.889791 0.016643 -0.376196 -0.834269 0.0174681 -0.35242 -1.06112 0.0138509 -0.448431 
-1.15706 -0.0248612 -0.476163 -1.0935 0.0459521 -0.46342 -1.0037 -0.0690759 -0.429076 
-0.936252 0.0913881 -0.405466 -0.983448 0.068064 -0.425953 -0.985607 0.0169505 -0.416253 
-1.16178 -0.0507698 -0.80922 -0.992607 0.0274258 -0.485079 -0.883902 -0.0171474 -0.374124 
-1.05666 0.0338924 -0.382304 -1.08837 0.104507 -0.443304 -1.06108 0.0948629 -0.432719 
-1.16221 -0.0949292 -0.509167 -1.08444 -0.0406992 -0.449623 -1.18726 0.285344 -0.601295 
-1.05832 -0.0490622 -0.447932 -1.00773 -0.0070072 -0.408333 -0.900647 0.0325668 -0.37978 
-0.916042 0.0520707 -0.389806 -0.974283 0.0706805 -0.415207 -1.09506 -0.0318158 -0.638841 
-0.9397 -0.020197 -0.404572 -0.930262 -0.0455331 -0.391485 -0.846035 -0.0364338 -0.344754 
-0.875748 -0.0125894 -0.398147 -0.956161 0.0732679 -0.298111 -0.87562 0.0708179 -0.360079 
-0.784284 -0.0492518 -0.359981 -1.24078 0.0159236 -0.518917 -1.1504 0.150984 -0.508604 
-0.796969 -0.0430534 -0.323877 -0.71812 -0.0241117 -0.299552 -0.790608 0.0173879 -0.236173 
-0.959007 0.115414 -0.421243 -1.02271 -0.0397171 -0.430314 -0.990475 0.0182945 -0.468139 
-0.923728 -0.0360946 -0.388236 -1.04693 -0.0329358 -0.451673 -1.19036 -0.0215585 -0.543203 
-0.820174 -0.0706405 -0.348244 -0.992768 0.13013 -0.376578 -0.955724 0.175348 -0.447559 
-1.07569 -0.166124 -0.428812 -1.03009 -0.138654 -0.419617 -0.980546 -0.0684644 -0.419362 
-1.03567 -0.0253555 -0.441754 -1.10871 -0.114492 -0.478579 -1.08148 0.334176 -0.58085 
-1.01487 0.242871 -0.4622 -0.992302 0.0374462 -0.471223 -0.862745 0.230429 -0.413639 
-1.03571 0.211864 -0.455301 -0.933237 0.153585 -0.393056 -1.01703 0.0214762 -0.427578 
-1.02116 0.162343 -0.429115 -0.917147 -0.0150126 -0.343379 -1.1047 -0.0765961 -0.465394 
-1.11522 -0.0283043 -0.460434 -1.11703 -0.0821103 -0.378299 -0.831998 -0.0824634 -0.311896 
-1.02904 -0.0676732 -0.399968 -1.00442 -0.0526317 -0.434499 -0.997395 0.00459791 -0.391018 
-0.869315 0.000859039 -0.388248 -0.868324 -0.0112691 -0.371936 -0.877833 0.0225947 -0.375193 
-0.87489 0.193311 -0.329244 -0.819835 0.00842666 -0.337654 -0.946095 -0.0511468 -0.406371 
-0.771502 0.106588 -0.299134 -0.878568 0.00618279 -0.342001 -1.05346 -0.0160528 -0.413387 
-0.997842 -0.147229 -0.337658 -0.837899 -0.152771 -0.380905 -0.859813 -0.0513145 -0.316094 
-0.851247 0.128856 -0.364495 -0.880491 -0.0648927 -0.378049 -0.747645 -0.0240626 -0.320739 
-0.902072 -0.0381466 -0.386913 -0.987438 0.0216648 -0.405854 -1.0164 -0.0309379 -0.424996 
-1.017 -0.254161 -0.514309 -1.09669 -0.165064 -0.385246 -0.895469 -0.107114 -0.329866 
-0.776702 -0.0506159 -0.328061 -0.881547 0.0627434 -0.371864 -0.851717 -0.00689795 -0.354257 
-0.874216 0.0925318 -0.363599 -0.813267 0.0089556 -0.335344 -0.88797 -0.158736 -0.411706 
-1.21758 0.317365 -0.601922 -1.08769 0.00294689 -0.418698 -1.15942 0.198165 -0.416083 
-1.14014 0.0606934 -0.663173 -0.732409 -0.123229 -0.388838 -1.05126 -0.180436 -0.56194 
-1.4231 -0.13074 -0.716222 -1.02611 0.170517 -0.737255 -0.985516 -0.301113 -0.56891 
-0.810817 0.066748 -0.341982 -0.89166 0.00825414 -0.368314 -0.942255 -0.0160329 -0.424497 
-0.725606 -0.0216516 -0.311009 -0.831596 -0.0223654 -0.357152 -0.881944 -0.0354482 -0.361158 
-0.781142 -0.0738884 -0.344462 -0.7635 -0.0734078 -0.327171 -0.81651 -0.023818 -0.300872 
-0.592304 0.111788 -0.225211 -0.559182 0.505664 -0.0784273 -0.921155 -0.05134 -0.371988 
-0.792111 0.168956 -0.588545 -0.663574 0.129718 -0.653939 -0.526116 -0.192786 -0.23246 
-0.65589 -0.0639883 -0.611071 -0.732328 -0.330962 -0.606994 -0.390171 -0.0196376 -0.117088 
-0.87879 -0.0315241 -0.3691 -0.794212 -0.066382 -0.35997 -0.738702 -0.0174714 -0.309218 
-0.703145 -0.048829 -0.284061 -0.783129 0.0191538 -0.324097 -0.638763 -0.0302987 -0.243098 
-0.78934 -0.0334075 -0.340875 -0.769925 -0.0651921 -0.301428 -0.889531 0.0691011 -0.255274 
-0.845606 -0.109649 -0.369265 -0.753947 -0.0241504 -0.322932 -0.772389 -0.0917008 -0.329853 
-0.833638 -0.0708967 -0.356415 -0.849658 0.00357088 -0.360837 -0.804404 0.023578 -0.333509 
-0.82187 0.0364064 -0.343413 -0.749443 0.0740499 -0.321389 -0.919183 -0.135143 -0.356433 
-0.74309 0.282243 -0.340088 -0.703614 -0.0352082 -0.297713 -0.75437 0.0358148 -0.311137 
-0.810287 -0.0155941 -0.340515 -0.721026 -0.0227381 -0.295107 -0.674074 -0.0252733 -0.196828 
-0.821706 0.00215448 -0.346536 -0.673699 0.00295813 -0.283017 -1.03983 -0.00870677 -0.417575 
-1.03437 -0.0595027 -0.405569 -0.854575 -0.0692618 -0.33159 -0.6607 -0.087786 -0.275504 
-0.66227 0.0163479 -0.275933 -0.700936 0.023526 -0.289005 -0.934733 -0.000532115 -0.642144 
-0.553902 0.072837 -0.239978 -0.862493 0.0613147 -0.357647 -0.948065 0.0480999 -0.385066 
-1.25017 0.0617535 -0.471913 -0.901831 -0.0873281 -0.382723 -0.846596 -0.0859562 -0.359869 
-0.760738 0.199603 -0.299743 -0.803593 0.053576 -0.336003 -0.860993 0.146507 -0.325993 
-0.842127 -0.0833123 -0.366422 -0.463868 0.167873 -0.493191 -0.835908 -0.0847615 -0.345494 
-0.702959 -0.0625853 -0.291679 -0.786235 0.0149555 -0.336019 -0.713682 -0.0183943 -0.304323 
-0.68939 -0.0829327 -0.283478 -0.608689 -0.0515127 -0.261897 -0.631879 0.0186964 -0.255835 
-0.575397 0.0283338 -0.236416 -0.805638 0.160184 -0.301073 -0.879613 0.0799259 -0.363698 
-1.05368 0.0855229 -0.0188805 -1.01329 0.231438 -0.383954 -0.882982 -0.0226391 -0.372689 
-0.654946 -0.152163 -0.261673 -0.793441 -0.0689809 -0.296442 -0.669127 -0.0400407 -0.269001 
-0.73414 -0.0758494 -0.269353 -0.682162 -0.0449271 -0.280577 -0.780029 -0.0745439 -0.321064 
-0.854056 0.0814452 -0.499891 -0.551361 0.0991375 -0.214025 -0.640366 0.0353407 -0.419349 
-0.822777 0.0582855 -0.321377 -1.08539 -0.0388313 -0.397466 -0.757391 -0.177678 -0.280048 
-0.679921 -0.00850323 -0.277064 -0.693744 -0.0115114 -0.292683 -1.11278 -0.076165 -0.281132 
-0.696692 -0.00148739 -0.296014 -0.694519 0.00472776 -0.295137 -0.743687 0.0023173 -0.308647 
-0.654416 -0.00404061 -0.280782 -0.727118 0.0432417 -0.447855 -0.755469 0.0304853 -0.309327 
-0.597688 0.0259521 -0.239579 -0.611487 0.0766681 -0.23282 -0.610581 0.0289033 -0.267081 
-0.617231 0.0252092 -0.255742 -0.939632 0.16724 -0.370242 -0.963543 0.174789 -0.42648 
-0.71798 -0.00410183 -0.293894 -0.770557 0.070329 -0.282409 -0.715461 0.0111765 -0.286447 
-0.765524 0.0391663 -0.302874 -0.734973 -0.103689 -0.277414 -0.709789 0.0113751 -0.294879 
-0.652467 -0.0351219 -0.266623 -0.792257 -0.0130251 -0.496131 -0.723338 -0.0317616 -0.293856 
-0.705056 0.0161266 -0.293333 -0.620226 -0.0366278 -0.25684 -1.02161 0.166315 -0.485156 
-0.656927 -0.0177534 -0.272283 -0.598643 0.0343272 -0.257869 -0.576142 -0.0424591 -0.400868 
-0.580692 0.0358706 -0.234904 -0.608329 0.091486 -0.230848 -0.982782 0.130554 -0.647431 
-0.700529 -0.0622984 -0.29545 -0.805306 0.00941371 -0.195959 -0.739071 0.309435 -0.374077 
-0.857235 -0.134704 -0.323806 -0.689261 -0.12395 -0.269965 -1.07915 -0.0803746 -0.671949 
-0.593845 0.0231312 -0.255567 -0.581518 -0.0576392 -0.244354 -1.10774 -0.0231968 -0.552365 
-0.629458 -0.0237115 -0.247526 -0.606016 -0.0312686 -0.259497 -0.560448 -0.0285875 -0.239798 
-0.688911 0.104443 -0.282192 -0.746426 -0.106306 -0.329094 -0.872159 -0.00469628 -0.455408 
-0.527959 -0.00356758 -0.220166 -0.580733 -0.14153 -0.234083 -0.60346 -0.0985955 -0.242582 
-0.629493 0.0337835 -0.280146 -0.444805 -0.0404455 -0.187302 -0.600124 0.0387529 -0.258749 
-0.721216 -0.0649113 -0.32017 -0.59054 -0.0755126 -0.253237 -0.615409 -0.0685523 -0.256284 
-0.548139 -0.0901016 -0.32208 -0.698165 -0.124954 -0.294059 -0.625971 0.0522909 -0.253276 
-0.721235 -0.0487087 -0.310652 -0.776823 -0.0781318 -0.339156 -0.750235 0.128789 -0.295491 
-0.842462 -0.0146975 -0.422224 -0.554291 -0.0549164 -0.259853 -0.59212 -0.0149422 -0.268716 
-0.551602 0.0188409 -0.235146 -0.639219 -0.0430424 -0.174747 -0.523199 -0.0170794 -0.221259 
-0.572972 0.0712313 -0.240513 -0.618301 0.00131711 -0.199713 -0.647854 -0.00920127 -0.243401 
-0.725217 0.0600626 -0.279228 -0.738903 0.104272 -0.30126 -0.745862 -0.0364009 -0.295456 
-0.74614 0.212063 -0.279047 -0.802975 -0.146627 -0.0750413 -0.588775 -0.0097509 -0.212743 
-0.912348 -0.08017 -0.401437 -0.753482 -0.0492113 -0.322165 -0.740256 -0.0130944 -0.30894 
-0.590015 0.0636555 -0.218749 -0.668946 0.10183 -0.303142 -0.694026 -0.0669279 -0.276312 
-0.721493 -0.0830716 -0.300543 -0.947523 0.0319526 -0.343217 -0.85881 -0.155732 -0.411195 
-0.689297 -0.0190259 -0.304219 -0.637797 -0.0317455 -0.255353 -1.09253 -0.275826 -0.308677 
-0.874535 -0.0669522 -0.230751 -0.650308 0.0690351 -0.27824 -0.702429 -0.0970605 -0.305628 
-0.741115 -0.0344651 -0.299787 -0.925457 0.000283645 -0.778373 -0.805838 0.0231037 -0.797623 
-0.816486 0.0709531 -0.277581 -0.696268 -0.130476 -0.283384 -0.726863 0.215376 -0.271444 
-0.479553 0.0582665 -0.206764 -0.576189 -0.101954 -0.201362 -0.48717 0.0580937 -0.190111 
-0.641891 0.0326059 -0.271483 -0.590935 0.131968 -0.154139 -0.704511 -0.0696942 -0.0841129 
-0.863763 0.134388 -0.103326 -0.780912 0.334578 -0.519899 -0.843633 -0.223266 -0.647807 
-0.917413 -0.231808 -0.251415 -0.539719 -0.127702 -0.231707 -0.284718 -0.0750764 -0.0524246 
-0.630868 -0.15159 -0.225814 -0.692927 0.303059 -0.2441 -0.618334 -0.361692 -0.210303 