# vtk DataFile Version 4.0
Generated by LIGGGHTS
ASCII
DATASET POLYDATA
POINTS 818 float
-0.200749 -0.0148715 -0.189117 -0.458259 -0.00465367 -0.395616 -0.463164 -0.0013575 -0.395772 
-0.450532 0.00234158 -0.394803 -0.482648 0.0283907 -0.395898 -0.466326 -0.0206725 -0.392624 
-0.487218 -0.0138622 -0.391655 -0.451491 -0.00718456 -0.389524 -0.476958 0.00405459 -0.390277 
-0.472092 -0.00440636 -0.385249 -0.463484 -0.000302641 -0.382751 -0.46226 -0.00339797 -0.382583 
-0.406204 0.005484 -0.381931 -0.463651 0.010141 -0.379169 -0.451665 -0.0215239 -0.378245 
-0.442599 -0.0142704 -0.377194 -0.4551 -0.00119888 -0.378768 -0.447083 0.00195866 -0.3762 
-0.47692 0.00922579 -0.378184 -0.425582 -0.00664812 -0.373103 -0.470341 0.00570426 -0.374852 
-0.485743 -0.0366855 -0.3694 -0.454917 -0.0293146 -0.357328 -0.444726 -0.0078019 -0.357707 
-0.453991 -0.00391744 -0.354832 -0.456358 0.00412984 -0.356848 -0.448235 -0.00330355 -0.351488 
-0.443844 -0.0106 -0.346978 -0.419581 0.0302438 -0.349526 -0.436242 -0.0166872 -0.346558 
-0.43698 0.0332937 -0.344996 -0.444296 -0.022407 -0.342777 -0.435101 0.000300172 -0.339723 
-0.418737 0.0156421 -0.341851 -0.436972 0.0320936 -0.340215 -0.42516 0.0250977 -0.336877 
-0.439743 -0.00938537 -0.334197 -0.433323 -0.0042041 -0.332797 -0.442058 -0.0298254 -0.330007 
-0.424609 -0.0104215 -0.331742 -0.40624 -0.000547587 -0.331302 -0.414866 0.00679519 -0.328821 
-0.432659 0.0221524 -0.330189 -0.426212 -0.0212348 -0.327183 -0.419077 0.0046221 -0.327981 
-0.413852 0.017654 -0.327157 -0.422255 0.00449489 -0.323188 -0.399598 0.0128289 -0.322489 
-0.424977 -0.017581 -0.320544 -0.413982 0.00643167 -0.3191 -0.421203 0.00794459 -0.31878 
-0.417223 -0.0158967 -0.316029 -0.434911 -0.0132561 -0.316371 -0.421054 -0.00359161 -0.317752 
-0.416723 0.000632487 -0.31594 -0.403515 0.00718677 -0.315318 -0.420567 0.0111849 -0.31619 
-0.40769 0.00359099 -0.311498 -0.412371 0.0106914 -0.312452 -0.41781 -0.00339048 -0.309784 
-0.408161 -0.00379565 -0.307704 -0.409168 -0.0108886 -0.305585 -0.403397 0.00175774 -0.307059 
-0.407367 0.00901126 -0.304899 -0.405753 -0.0155312 -0.30324 -0.403298 0.00420696 -0.302628 
-0.398094 -0.00760526 -0.297934 -0.391811 -0.0103782 -0.298755 -0.389928 -0.00534287 -0.296435 
-0.40357 0.0108379 -0.2978 -0.403241 -0.0215452 -0.295377 -0.397521 -0.00834656 -0.293365 
-0.398155 0.0096524 -0.294431 -0.407127 0.0277238 -0.294872 -0.399086 -0.0143768 -0.289831 
-0.396436 0.0155317 -0.292864 -0.401195 0.0219326 -0.292632 -0.398354 -0.00991345 -0.289078 
-0.388645 -0.002025 -0.286379 -0.387726 0.00889211 -0.288726 -0.388906 0.0121563 -0.287026 
-0.398666 0.03136 -0.288366 -0.392453 -0.0156256 -0.284732 -0.380036 0.00184484 -0.283874 
-0.37365 0.00441706 -0.283667 -0.390511 0.0150151 -0.285197 -0.377562 -0.00864118 -0.276141 
-0.378911 -0.00594886 -0.277019 -0.374836 0.00345104 -0.275607 -0.374724 0.0204026 -0.277786 
-0.371947 -0.0133147 -0.272944 -0.368547 0.0030276 -0.272363 -0.378044 0.00641613 -0.274591 
-0.370765 0.00407037 -0.274737 -0.374614 0.0155919 -0.272588 -0.375474 0.0232171 -0.271901 
-0.369023 -0.014112 -0.268958 -0.368198 -0.00902342 -0.271184 -0.368218 0.0110176 -0.268213 
-0.364027 -0.0153176 -0.265365 -0.366421 -0.0123736 -0.267458 -0.360296 -0.0133248 -0.264654 
-0.365309 -0.00709759 -0.266976 -0.356609 -0.0130986 -0.258247 -0.357342 -0.00881588 -0.258941 
-0.353499 -0.0057779 -0.259397 -0.348033 -0.00502978 -0.2587 -0.356331 0.00109582 -0.260385 
-0.352522 0.00652387 -0.25825 -0.355167 -0.0294456 -0.253457 -0.354484 -0.024067 -0.254061 
-0.350655 -0.0225638 -0.254436 -0.348997 -0.0167756 -0.255588 -0.349664 -0.01268 -0.254546 
-0.348401 0.000174375 -0.254164 -0.345321 0.00907028 -0.253834 -0.345139 0.0125778 -0.253657 
-0.348661 0.0162386 -0.255292 -0.359891 -0.0390555 -0.252548 -0.346825 -0.0172526 -0.252017 
-0.343893 -0.0142734 -0.251192 -0.345433 -0.0105716 -0.251731 -0.343241 -0.000411347 -0.252901 
-0.343197 0.00691107 -0.251113 -0.341238 0.0141983 -0.249801 -0.344004 0.0201962 -0.251558 
-0.341485 0.0183145 -0.25081 -0.349642 0.0264298 -0.253085 -0.350751 0.0312506 -0.252488 
-0.341056 -0.0156778 -0.249523 -0.338893 0.0184354 -0.248204 -0.328197 -0.0183236 -0.242632 
-0.332515 -0.0124077 -0.245766 -0.326811 -0.0116704 -0.242166 -0.328301 -0.0082238 -0.244164 
-0.328034 -0.00294478 -0.244388 -0.324631 -0.00190447 -0.242976 -0.328234 0.00277216 -0.243541 
-0.330707 0.00622863 -0.245594 -0.325097 0.00519784 -0.242942 -0.334252 0.010017 -0.245907 
-0.329167 0.00860927 -0.244519 -0.325397 0.00904298 -0.24284 -0.331728 0.0133723 -0.245455 
-0.325192 -0.0274139 -0.239324 -0.323491 -0.0241864 -0.239527 -0.321966 -0.0184313 -0.240037 
-0.323491 -0.0155228 -0.241212 -0.321158 -0.0137529 -0.240531 -0.321777 -0.00970573 -0.24014 
-0.325769 -0.005827 -0.242062 -0.322166 -0.00309749 -0.241732 -0.315355 -0.00333721 -0.238998 
-0.317232 -0.000237984 -0.239884 -0.32227 0.000877851 -0.240891 -0.318636 0.00252776 -0.240315 
-0.324073 0.00695088 -0.240529 -0.320964 0.00855733 -0.239741 -0.317868 0.00803903 -0.239611 
-0.330526 0.0199962 -0.242368 -0.326436 -0.032712 -0.238017 -0.316401 -0.0152155 -0.23806 
-0.317487 -0.0113171 -0.238101 -0.310313 -0.0112445 -0.236234 -0.313421 -0.0080487 -0.23687 
-0.321068 -0.00583685 -0.237061 -0.313371 -0.0031222 -0.236697 -0.313812 -0.000692954 -0.238449 
-0.315695 0.00282092 -0.237584 -0.310116 0.00039832 -0.236887 -0.314972 0.0067336 -0.238502 
-0.311928 0.00595351 -0.23593 -0.315597 0.0103932 -0.23693 -0.31755 0.0149411 -0.237744 
-0.306547 -0.0198606 -0.233334 -0.301361 -0.0158109 -0.232031 -0.299562 -0.00764023 -0.232181 
-0.30408 -0.000523885 -0.233262 -0.300193 0.000751155 -0.232682 -0.305973 0.00490591 -0.233772 
-0.303429 0.00865024 -0.233548 -0.310029 0.0105042 -0.235128 -0.305877 0.0105712 -0.234459 
-0.306151 0.0135753 -0.234358 -0.3081 0.021154 -0.233698 -0.299157 -0.0206597 -0.229027 
-0.300599 -0.0188174 -0.231072 -0.29828 -0.014743 -0.228187 -0.301006 -0.0118707 -0.231249 
-0.293129 -0.00844366 -0.2294 -0.301941 -0.00404637 -0.230438 -0.299406 -0.00692829 -0.229268 
-0.297124 -0.00474323 -0.23126 -0.291993 -0.0021668 -0.228098 -0.300748 0.00653668 -0.231465 
-0.295797 0.00907661 -0.230301 -0.298939 0.0107046 -0.231522 -0.303874 0.0167104 -0.2317 
-0.296022 0.015921 -0.229677 -0.302569 0.0214305 -0.230221 -0.306604 -0.0405234 -0.226026 
-0.286415 -0.0184156 -0.22533 -0.289939 -0.0160046 -0.227235 -0.28623 -0.0142962 -0.224765 
-0.286186 -0.00932474 -0.225298 -0.287956 -0.00451158 -0.226313 -0.283126 -0.00584983 -0.225315 
-0.317784 -0.00182319 -0.227768 -0.296868 0.0214401 -0.227855 -0.277812 -0.0197068 -0.221495 
-0.277922 -0.00704872 -0.223079 -0.274127 -0.00421638 -0.221571 -0.27851 -0.000141762 -0.222475 
-0.281066 0.00467265 -0.223283 -0.278514 0.00773726 -0.222294 -0.279238 0.0105189 -0.223267 
-0.28114 0.0143489 -0.222615 -0.276826 0.0145941 -0.221824 -0.280017 0.0184249 -0.222344 
-0.283595 0.0256762 -0.222726 -0.286488 0.0348211 -0.221136 -0.269534 -0.0131376 -0.217884 
-0.273673 -0.00839313 -0.220141 -0.271013 -0.00337067 -0.219198 -0.270347 0.00422754 -0.219909 
-0.280708 0.0223066 -0.220991 -0.276817 0.0229151 -0.220397 -0.286725 0.0282278 -0.220998 
-0.289269 0.0409527 -0.219942 -0.263874 -0.0179451 -0.216034 -0.265701 -0.0140867 -0.217249 
-0.260998 -0.0173973 -0.214884 -0.257119 -0.00718419 -0.214272 -0.257285 -0.00132098 -0.214597 
-0.259337 0.00390829 -0.21416 -0.26232 0.00863367 -0.215229 -0.257818 0.0115142 -0.214285 
-0.261449 0.0247163 -0.213773 -0.25668 -0.011078 -0.213813 -0.251177 -0.0138595 -0.211128 
-0.255544 -0.00361167 -0.213763 -0.248455 -0.00623185 -0.21066 -0.252769 -0.00287882 -0.212631 
-0.252087 0.00357508 -0.212224 -0.254982 0.010149 -0.212874 -0.253224 0.0152626 -0.211788 
-0.254717 0.0189666 -0.211857 -0.258286 0.0215388 -0.211881 -0.254815 0.0235071 -0.211221 
-0.2759 0.0445598 -0.212999 -0.267638 -0.0369556 -0.207037 -0.249267 -0.0176685 -0.209716 
-0.246098 -0.0095535 -0.208417 -0.242236 -0.0064454 -0.206957 -0.244004 -0.0031269 -0.208934 
-0.248741 0.00260701 -0.209732 -0.245592 7.89411e-05 -0.209582 -0.244617 0.00410503 -0.209048 
-0.255293 0.0103485 -0.208473 -0.264545 0.0139491 -0.210068 -0.248734 0.0124487 -0.208407 
-0.24986 0.0157768 -0.210314 -0.249817 0.0194195 -0.208664 -0.254999 0.0309956 -0.2094 
-0.248836 -0.0294101 -0.206144 -0.243326 -0.0287439 -0.205036 -0.236385 5.68418e-05 -0.2057 
-0.235748 0.00529248 -0.205264 -0.241994 0.0142056 -0.206009 -0.245406 0.021797 -0.206465 
-0.245986 0.0296989 -0.2059 -0.238852 0.0282906 -0.203425 -0.226535 -0.00586549 -0.201318 
-0.227366 -0.00118017 -0.201895 -0.238901 0.0115068 -0.203278 -0.23874 0.0159677 -0.202379 
-0.229422 0.0216327 -0.200941 -0.236294 0.0247446 -0.20213 -0.260135 -0.0594801 -0.199083 
-0.235886 -0.0424744 -0.197866 -0.222922 -0.0254498 -0.197376 -0.223068 -0.0193436 -0.198733 
-0.225027 -0.0151041 -0.198881 -0.224804 0.000684019 -0.199197 -0.223521 0.0141109 -0.199458 
-0.220949 0.0195072 -0.1977 -0.232194 0.0316882 -0.198719 -0.210621 -0.00458979 -0.193717 
-0.212961 0.000226374 -0.195749 -0.240843 0.00394725 -0.19588 -0.209283 0.00765546 -0.194132 
-0.246626 0.0244634 -0.195236 -0.214373 0.0227351 -0.194526 -0.222225 0.0275149 -0.195578 
-0.214827 0.0263736 -0.193896 -0.220264 -0.0414014 -0.190777 -0.204688 -0.0169536 -0.191153 
-0.205679 -0.0121358 -0.19208 -0.212822 0.0138017 -0.191835 -0.206052 0.0170002 -0.190675 
-0.201898 0.0239001 -0.18902 -0.212761 0.0308238 -0.190893 -0.209644 -0.00371258 -0.187137 
-0.205494 0.00219392 -0.189415 -0.201873 0.0188927 -0.187692 -0.204384 -0.0507797 -0.182171 
-0.230807 0.0817664 -0.169592 -0.217974 -0.0971464 -0.142405 -0.20103 -0.0077441 -0.189533 
-0.074347 -0.0618032 -0.125447 -0.0612208 0.0361366 -0.127939 -0.198637 0.00331465 -0.189697 
-0.196798 -0.0219535 -0.187237 -0.197875 -0.0179328 -0.188174 -0.193264 -0.0180025 -0.186188 
-0.195611 -0.0154199 -0.187504 -0.193621 -0.0123335 -0.185922 -0.199421 -0.00384055 -0.188498 
[...]
POINT_DATA 818
FIELD FieldData 7
id 1 818 int
472 176 111 89 103 201 159 175 182 
66 270 143 187 140 110 125 216 86 
80 196 105 268 203 186 78 90 127 
128 257 113 281 232 238 135 327 227 
165 228 171 204 121 265 198 144 246 
234 153 161 194 202 97 224 347 191 
170 183 178 141 215 230 123 117 372 
277 102 164 287 209 185 199 290 218 
206 258 205 278 151 211 129 259 131 
223 275 152 262 210 314 260 243 292 
282 239 271 155 299 300 119 252 342 
214 302 149 293 189 219 180 220 279 
208 320 348 286 295 115 190 236 289 
309 337 355 212 193 301 256 318 288 
184 325 272 221 311 413 315 317 106 
251 172 254 207 250 266 324 160 323 
338 365 312 249 313 229 217 169 225 
107 341 284 308 197 310 319 297 403 
255 379 280 179 346 235 307 168 333 
269 267 242 350 359 425 344 283 240 
345 370 261 352 264 405 321 406 253 
378 305 391 247 330 306 322 213 380 
389 332 381 237 373 303 316 241 285 
396 294 336 376 226 331 354 334 411 
384 173 392 504 339 393 329 291 402 
383 401 356 404 328 248 335 296 388 
395 367 326 448 441 371 358 273 374 
426 377 414 298 419 362 463 456 386 
432 409 349 394 415 447 457 438 468 
429 369 439 535 437 276 400 481 407 
490 423 385 428 424 584 410 421 398 
360 467 452 443 473 442 399 496 470 
465 382 513 510 475 446 502 523 195 
387 540 357 397 494 462 471 431 618 
477 499 343 263 686 427 460 430 363 
351 408 451 434 500 466 375 469 458 
390 464 418 484 476 422 433 412 340 
364 478 416 353 440 480 417 525 483 
568 508 455 492 479 554 505 435 368 
495 450 453 509 533 459 449 461 518 
543 515 482 522 538 529 558 530 550 
537 541 436 501 546 420 582 444 507 
566 573 596 526 361 603 454 561 488 
556 445 572 493 553 489 498 514 366 
512 545 563 531 503 551 491 528 548 
574 578 630 520 581 487 497 559 527 
611 589 576 588 542 506 517 474 549 
524 511 565 547 627 594 532 604 599 
619 591 521 534 615 486 567 519 577 
602 485 555 564 552 562 557 609 598 
624 516 560 614 656 650 595 587 654 
580 570 617 658 644 633 583 586 620 
676 682 628 610 645 661 616 625 632 
575 621 629 655 590 635 647 608 711 
640 634 636 571 544 539 606 607 585 
631 673 641 536 600 613 721 597 671 
685 734 637 592 657 649 660 683 643 
642 612 669 569 681 593 698 653 692 
648 623 667 646 622 742 638 678 674 
662 665 684 720 697 651 626 601 688 
702 639 694 713 664 670 675 666 775 
680 679 677 668 652 717 703 736 747 
737 699 696 722 715 708 750 701 732 
719 704 727 709 952 950 663 691 712 
733 707 728 716 700 958 695 579 738 
723 693 672 724 776 739 744 756 771 
746 714 687 689 725 690 759 752 730 
762 748 741 755 729 764 766 794 706 
810 753 763 743 761 710 791 718 795 
773 770 782 803 788 774 772 790 796 
811 751 749 781 758 726 783 765 799 
802 780 789 798 792 808 787 793 735 
740 768 805 760 786 801 705 659 797 
815 813 814 800 757 809 816 754 784 
767 777 731 804 812 807 745 778 785 
769 779 806 821 825 827 823 828 829 
824 826 819 822 817 818 605 830 836 
820 840 834 841 839 835 838 842 831 
833 837 832 853 852 851 846 849 855 
847 844 854 845 850 848 843 864 860 
856 861 858 857 863 868 866 867 865 
859 862 874 881 877 870 880 878 879 
876 871 873 875 872 869 892 894 882 
883 889 884 887 888 891 890 893 885 
886 900 898 902 896 906 905 897 907 
899 904 903 901 895 911 914 917 919 
915 916 913 909 910 918 908 920 924 
912 933 927 931 925 922 930 923 921 
926 929 928 932 945 944 940 935 943 
941 946 936 939 937 938 934 942 957 
953 948 951 956 947 954 955 949 
type 1 818 int
1 1 1 1 1 1 1 1 1 
1 1 1 1 1 1 1 1 1 
1 1 1 1 1 1 1 1 1 
1 1 1 1 1 1 1 1 1 
1 1 1 1 1 1 1 1 1 
1 1 1 1 1 1 1 1 1 
1 1 1 1 1 1 1 1 1 
1 1 1 1 1 1 1 1 1 
1 1 1 1 1 1 1 1 1 
1 1 1 1 1 1 1 1 1 
1 1 1 1 1 1 1 1 1 
1 1 1 1 1 1 1 1 1 
1 1 1 1 1 1 1 1 1 
1 1 1 1 1 1 1 1 1 
1 1 1 1 1 1 1 1 1 
1 1 1 1 1 1 1 1 1 
1 1 1 1 1 1 1 1 1 
1 1 1 1 1 1 1 1 1 
1 1 1 1 1 1 1 1 1 
1 1 1 1 1 1 1 1 1 
1 1 1 1 1 1 1 1 1 
1 1 1 1 1 1 1 1 1 
1 1 1 1 1 1 1 1 1 
1 1 1 1 1 1 1 1 1 
1 1 1 1 1 1 1 1 1 
1 1 1 1 1 1 1 1 1 
1 1 1 1 1 1 1 1 1 
1 1 1 1 1 1 1 1 1 
1 1 1 1 1 1 1 1 1 
1 1 1 1 1 1 1 1 1 
1 1 1 1 1 1 1 1 1 
1 1 1 1 1 1 1 1 1 
1 1 1 1 1 1 1 1 1 
1 1 1 1 1 1 1 1 1 
1 1 1 1 1 1 1 1 1 
1 1 1 1 1 1 1 1 1 
1 1 1 1 1 1 1 1 1 
1 1 1 1 1 1 1 1 1 
1 1 1 1 1 1 1 1 1 
1 1 1 1 1 1 1 1 1 
1 1 1 1 1 1 1 1 1 
1 1 1 1 1 1 1 1 1 
1 1 1 1 1 1 1 1 1 
1 1 1 1 1 1 1 1 1 
1 1 1 1 1 1 1 1 1 
1 1 1 1 1 1 1 1 1 
1 1 1 1 1 1 1 1 1 
1 1 1 1 1 1 1 1 1 
1 1 1 1 1 1 1 1 1 
1 1 1 1 1 1 1 1 1 
1 1 1 1 1 1 1 1 1 
1 1 1 1 1 1 1 1 1 
1 1 1 1 1 1 1 1 1 
1 1 1 1 1 1 1 1 1 
1 1 1 1 1 1 1 1 1 
1 1 1 1 1 1 1 1 1 
1 1 1 1 1 1 1 1 1 
1 1 1 1 1 1 1 1 1 
1 1 1 1 1 1 1 1 1 
1 1 1 1 1 1 1 1 1 
1 1 1 1 1 1 1 1 1 
1 1 1 1 1 1 1 1 1 
1 1 1 1 1 1 1 1 1 
1 1 1 1 1 1 1 1 1 
1 1 1 1 1 1 1 1 1 
1 1 1 1 1 1 1 1 1 
1 1 1 1 1 1 1 1 1 
1 1 1 1 1 1 1 1 1 
1 1 1 1 1 1 1 1 1 
1 1 1 1 1 1 1 1 1 
1 1 1 1 1 1 1 1 1 
1 1 1 1 1 1 1 1 1 
1 1 1 1 1 1 1 1 1 
1 1 1 1 1 1 1 1 1 
1 1 1 1 1 1 1 1 1 
1 1 1 1 1 1 1 1 1 
1 1 1 1 1 1 1 1 1 
1 1 1 1 1 1 1 1 1 
1 1 1 1 1 1 1 1 1 
1 1 1 1 1 1 1 1 1 
1 1 1 1 1 1 1 1 1 
1 1 1 1 1 1 1 1 1 
1 1 1 1 1 1 1 1 1 
1 1 1 1 1 1 1 1 1 
1 1 1 1 1 1 1 1 1 
1 1 1 1 1 1 1 1 1 
1 1 1 1 1 1 1 1 1 
1 1 1 1 1 1 1 1 1 
1 1 1 1 1 1 1 1 1 
1 1 1 1 1 1 1 1 1 
1 1 1 1 1 1 1 1 
i 3 818 int
0 0 0 0 0 0 0 0 0 
0 0 0 0 0 0 0 0 0 
0 0 0 0 0 0 0 0 0 
0 0 0 0 0 0 0 0 0 
0 0 0 0 0 0 0 0 0 
0 0 0 0 0 0 0 0 0 
0 0 0 0 0 0 0 0 0 
0 0 0 0 0 0 0 0 0 
0 0 0 0 0 0 0 0 0 
0 0 0 0 0 0 0 0 0 
0 0 0 0 0 0 0 0 0 
0 0 0 0 0 0 0 0 0 
0 0 0 0 0 0 0 0 0 
0 0 0 0 0 0 0 0 0 
0 0 0 0 0 0 0 0 0 
0 0 0 0 0 0 0 0 0 
0 0 0 0 0 0 0 0 0 
0 0 0 0 0 0 0 0 0 
0 0 0 0 0 0 0 0 0 
0 0 0 0 0 0 0 0 0 
0 0 0 0 0 0 0 0 0 
0 0 0 0 0 0 0 0 0 
0 0 0 0 0 0 0 0 0 
0 0 0 0 0 0 0 0 0 
0 0 0 0 0 0 0 0 0 
0 0 0 0 0 0 0 0 0 
0 0 0 0 0 0 0 0 0 
0 0 0 0 0 0 0 0 0 
0 0 0 0 0 0 0 0 0 
0 0 0 0 0 0 0 0 0 
0 0 0 0 0 0 0 0 0 
0 0 0 0 0 0 0 0 0 
0 0 0 0 0 0 0 0 0 
0 0 0 0 0 0 0 0 0 
0 0 0 0 0 0 0 0 0 
0 0 0 0 0 0 0 0 0 
0 0 0 0 0 0 0 0 0 
0 0 0 0 0 0 0 0 0 
0 0 0 0 0 0 0 0 0 
0 0 0 0 0 0 0 0 0 
0 0 0 0 0 0 0 0 0 
0 0 0 0 0 0 0 0 0 
0 0 0 0 0 0 0 0 0 
0 0 0 0 0 0 0 0 0 
0 0 0 0 0 0 0 0 0 
0 0 0 0 0 0 0 0 0 
0 0 0 0 0 0 0 0 0 
0 0 0 0 0 0 0 0 0 
0 0 0 0 0 0 0 0 0 
0 0 0 0 0 0 0 0 0 
0 0 0 0 0 0 0 0 0 
0 0 0 0 0 0 0 0 0 
0 0 0 0 0 0 0 0 0 
0 0 0 0 0 0 0 0 0 
0 0 0 0 0 0 0 0 0 
0 0 0 0 0 0 0 0 0 
0 0 0 0 0 0 0 0 0 
0 0 0 0 0 0 0 0 0 
0 0 0 0 0 0 0 0 0 
0 0 0 0 0 0 0 0 0 
0 0 0 0 0 0 0 0 0 
0 0 0 0 0 0 0 0 0 
0 0 0 0 0 0 0 0 0 
0 0 0 0 0 0 0 0 0 
0 0 0 0 0 0 0 0 0 
0 0 0 0 0 0 0 0 0 
0 0 0 0 0 0 0 0 0 
0 0 0 0 0 0 0 0 0 
0 0 0 0 0 0 0 0 0 
0 0 0 0 0 0 0 0 0 
0 0 0 0 0 0 0 0 0 
0 0 0 0 0 0 0 0 0 
0 0 0 0 0 0 0 0 0 
0 0 0 0 0 0 0 0 0 
0 0 0 0 0 0 0 0 0 
0 0 0 0 0 0 0 0 0 
0 0 0 0 0 0 0 0 0 
0 0 0 0 0 0 0 0 0 
0 0 0 0 0 0 0 0 0 
0 0 0 0 0 0 0 0 0 
0 0 0 0 0 0 0 0 0 
0 0 0 0 0 0 0 0 0 
0 0 0 0 0 0 0 0 0 
0 0 0 0 0 0 0 0 0 
0 0 0 0 0 0 0 0 0 
0 0 0 0 0 0 0 0 0 
0 0 0 0 0 0 0 0 0 
0 0 0 0 0 0 0 0 0 
0 0 0 0 0 0 0 0 0 
0 0 0 0 0 0 0 0 0 
0 0 0 0 0 0 0 0 0 
0 0 0 0 0 0 0 0 0 
0 0 0 0 0 0 0 0 0 
0 0 0 0 0 0 0 0 0 
0 0 0 0 0 0 0 0 0 
0 0 0 0 0 0 0 0 0 
0 0 0 0 0 0 0 0 0 
0 0 0 0 0 0 0 0 0 
0 0 0 0 0 0 0 0 0 
0 0 0 0 0 0 0 0 0 
0 0 0 0 0 0 0 0 0 
0 0 0 0 0 0 0 0 0 
0 0 0 0 0 0 0 0 0 
0 0 0 0 0 0 0 0 0 
0 0 0 0 0 0 0 0 0 
0 0 0 0 0 0 0 0 0 
0 0 0 0 0 0 0 0 0 
0 0 0 0 0 0 0 0 0 
0 0 0 0 0 0 0 0 0 
0 0 0 0 0 0 0 0 0 
0 0 0 0 0 0 0 0 0 
0 0 0 0 0 0 0 0 0 
0 0 0 0 0 0 0 0 0 
0 0 0 0 0 0 0 0 0 
0 0 0 0 0 0 0 0 0 
0 0 0 0 0 0 0 0 0 
0 0 0 0 0 0 0 0 0 
0 0 0 0 0 0 0 0 0 
0 0 0 0 0 0 0 0 0 
0 0 0 0 0 0 0 0 0 
0 0 0 0 0 0 0 0 0 
0 0 0 0 0 0 0 0 0 
0 0 0 0 0 0 0 0 0 
0 0 0 0 0 0 0 0 0 
0 0 0 0 0 0 0 0 0 
0 0 0 0 0 0 0 0 0 
0 0 0 0 0 0 0 0 0 
0 0 0 0 0 0 0 0 0 
0 0 0 0 0 0 0 0 0 
0 0 0 0 0 0 0 0 0 
0 0 0 0 0 0 0 0 0 
0 0 0 0 0 0 0 0 0 
0 0 0 0 0 0 0 0 0 
0 0 0 0 0 0 0 0 0 
0 0 0 0 0 0 0 0 0 
0 0 0 0 0 0 0 0 0 
0 0 0 0 0 0 0 0 0 
0 0 0 0 0 0 0 0 0 
0 0 0 0 0 0 0 0 0 
0 0 0 0 0 0 0 0 0 
0 0 0 0 0 0 0 0 0 
0 0 0 0 0 0 0 0 0 
0 0 0 0 0 0 0 0 0 
0 0 0 0 0 0 0 0 0 
0 0 0 0 0 0 0 0 0 
0 0 0 0 0 0 0 0 0 
0 0 0 0 0 0 0 0 0 
0 0 0 0 0 0 0 0 0 
0 0 0 0 0 0 0 0 0 
0 0 0 0 0 0 0 0 0 
0 0 0 0 0 0 0 0 0 
0 0 0 0 0 0 0 0 0 
0 0 0 0 0 0 0 0 0 
0 0 0 0 0 0 0 0 0 
0 0 0 0 0 0 0 0 0 
0 0 0 0 0 0 0 0 0 
0 0 0 0 0 0 0 0 0 
0 0 0 0 0 0 0 0 0 
0 0 0 0 0 0 0 0 0 
0 0 0 0 0 0 0 0 0 
0 0 0 0 0 0 0 0 0 
0 0 0 0 0 0 0 0 0 
0 0 0 0 0 0 0 0 0 
0 0 0 0 0 0 0 0 0 
0 0 0 0 0 0 0 0 0 
0 0 0 0 0 0 0 0 0 
0 0 0 0 0 0 0 0 0 
0 0 0 0 0 0 0 0 0 
0 0 0 0 0 0 0 0 0 
0 0 0 0 0 0 0 0 0 
0 0 0 0 0 0 0 0 0 
0 0 0 0 0 0 0 0 0 
0 0 0 0 0 0 0 0 0 
0 0 0 0 0 0 0 0 0 
0 0 0 0 0 0 0 0 0 
0 0 0 0 0 0 0 0 0 
0 0 0 0 0 0 0 0 0 
0 0 0 0 0 0 0 0 0 
0 0 0 0 0 0 0 0 0 
0 0 0 0 0 0 0 0 0 
0 0 0 0 0 0 0 0 0 
0 0 0 0 0 0 0 0 0 
0 0 0 0 0 0 0 0 0 
0 0 0 0 0 0 0 0 0 
0 0 0 0 0 0 0 0 0 
0 0 0 0 0 0 0 0 0 
0 0 0 0 0 0 0 0 0 
0 0 0 0 0 0 0 0 0 
0 0 0 0 0 0 0 0 0 
0 0 0 0 0 0 0 0 0 
0 0 0 0 0 0 0 0 0 
0 0 0 0 0 0 0 0 0 
0 0 0 0 0 0 0 0 0 
0 0 0 0 0 0 0 0 0 
0 0 0 0 0 0 0 0 0 
0 0 0 0 0 0 0 0 0 
0 0 0 0 0 0 0 0 0 
0 0 0 0 0 0 0 0 0 
0 0 0 0 0 0 0 0 0 
0 0 0 0 0 0 0 0 0 
0 0 0 0 0 0 0 0 0 
0 0 0 0 0 0 0 0 0 
0 0 0 0 0 0 0 0 0 
0 0 0 0 0 0 0 0 0 
0 0 0 0 0 0 0 0 0 
0 0 0 0 0 0 0 0 0 
0 0 0 0 0 0 0 0 0 
0 0 0 0 0 0 0 0 0 
0 0 0 0 0 0 0 0 0 
0 0 0 0 0 0 0 0 0 
0 0 0 0 0 0 0 0 0 
0 0 0 0 0 0 0 0 0 
0 0 0 0 0 0 0 0 0 
0 0 0 0 0 0 0 0 0 
0 0 0 0 0 0 0 0 0 
0 0 0 0 0 0 0 0 0 
0 0 0 0 0 0 0 0 0 
0 0 0 0 0 0 0 0 0 
0 0 0 0 0 0 0 0 0 
0 0 0 0 0 0 0 0 0 
0 0 0 0 0 0 0 0 0 
0 0 0 0 0 0 0 0 0 
0 0 0 0 0 0 0 0 0 
0 0 0 0 0 0 0 0 0 
0 0 0 0 0 0 0 0 0 
0 0 0 0 0 0 0 0 0 
0 0 0 0 0 0 0 0 0 
0 0 0 0 0 0 0 0 0 
0 0 0 0 0 0 0 0 0 
0 0 0 0 0 0 0 0 0 
0 0 0 0 0 0 0 0 0 
0 0 0 0 0 0 0 0 0 
0 0 0 0 0 0 0 0 0 
0 0 0 0 0 0 0 0 0 
0 0 0 0 0 0 0 0 0 
0 0 0 0 0 0 0 0 0 
0 0 0 0 0 0 0 0 0 
0 0 0 0 0 0 0 0 0 
0 0 0 0 0 0 0 0 0 
0 0 0 0 0 0 0 0 0 
0 0 0 0 0 0 0 0 0 
0 0 0 0 0 0 0 0 0 
0 0 0 0 0 0 0 0 0 
0 0 0 0 0 0 0 0 0 
0 0 0 0 0 0 0 0 0 
0 0 0 0 0 0 0 0 0 
0 0 0 0 0 0 0 0 0 
0 0 0 0 0 0 0 0 0 
0 0 0 0 0 0 0 0 0 
0 0 0 0 0 0 0 0 0 
0 0 0 0 0 0 0 0 0 
0 0 0 0 0 0 0 0 0 
0 0 0 0 0 0 0 0 0 
0 0 0 0 0 0 0 0 0 
0 0 0 0 0 0 0 0 0 
0 0 0 0 0 0 0 0 0 
0 0 0 0 0 0 0 0 0 
0 0 0 0 0 0 0 0 0 
0 0 0 0 0 0 0 0 0 
0 0 0 0 0 0 0 0 0 
0 0 0 0 0 0 0 0 0 
0 0 0 0 0 0 0 0 0 
0 0 0 0 0 0 0 0 0 
0 0 0 0 0 0 0 0 0 
0 0 0 0 0 0 0 0 0 
0 0 0 0 0 0 0 0 0 
0 0 0 0 0 0 0 0 0 
0 0 0 0 0 0 0 0 0 
0 0 0 0 0 0 0 0 0 
0 0 0 0 0 0 0 0 0 
0 0 0 0 0 0 0 0 0 
0 0 0 0 0 0 0 0 0 
0 0 0 0 0 0 
v 3 818 double
-0.723322 0.132562 -0.336002 -0.956358 0.130036 -1.80526 -0.974827 0.0231995 -1.77513 
-0.970178 0.112088 -1.8307 -1.06646 0.310137 -1.81836 -1.23618 -0.320835 -1.96072 
-1.22839 0.138285 -1.81399 -0.9273 0.0533049 -1.75048 -1.26808 -0.0987358 -1.98201 
-1.1671 -0.102321 -1.75805 -1.11399 -0.0598414 -1.75681 -1.07416 -0.0807929 -1.70088 
-0.633205 0.0666279 -1.76607 -1.06873 -0.121205 -1.73934 -0.937038 0.00446306 -1.68233 
-0.893674 0.0247865 -1.677 -1.06902 -0.280969 -1.77536 -0.95762 0.137807 -1.67904 
-1.2022 -0.0484226 -1.6944 -0.742355 -0.0334457 -1.75682 -1.19621 -0.10933 -1.66745 
-1.27685 0.0526286 -1.71102 -1.12302 -0.0308751 -1.59256 -1.07286 0.014188 -1.5787 
-1.17602 -0.00161866 -1.56916 -1.13972 0.0204263 -1.53977 -1.13557 -0.0484089 -1.5216 
-1.12182 -0.024323 -1.51455 -0.862739 0.0954789 -1.56674 -1.07652 -0.198395 -1.50913 
-1.02436 0.179403 -1.48629 -1.13227 0.0648615 -1.50542 -1.27327 -0.180764 -1.5668 
-1.01581 0.0703343 -1.53747 -1.04299 -0.00891421 -1.48485 -0.957861 0.0850598 -1.43314 
-1.24203 0.14395 -1.48557 -1.15946 0.0521943 -1.42953 -1.17842 -0.0334707 -1.39807 
-0.932546 0.0172999 -1.37965 -0.846733 -0.170585 -1.44041 -0.961267 -0.052721 -1.42646 
-1.04263 -0.0288047 -1.3483 -1.07131 -0.0200227 -1.3745 -1.01061 0.0312319 -1.36815 
-0.911098 0.0507405 -1.34946 -1.08139 -0.0307907 -1.34149 -0.844083 -0.0139612 -1.36173 
-1.08722 0.01333 -1.31661 -1.02564 0.0286047 -1.31996 -1.01234 -0.0407536 -1.27886 
-1.08441 -0.0152823 -1.28746 -1.35934 0.283724 -1.38742 -1.13691 0.0621687 -1.31658 
-1.08173 -0.00681234 -1.25947 -1.01304 -0.197298 -1.40818 -1.10239 0.00458917 -1.28234 
-1.11338 0.00902931 -1.33579 -1.05704 -0.0221346 -1.26151 -1.16829 0.255555 -1.27927 
-1.08033 0.0265767 -1.22069 -1.11276 -0.0174279 -1.21837 -1.06996 -0.0497087 -1.20729 
-1.16487 -0.0278289 -1.25147 -1.13578 -0.0353817 -1.22423 -1.0491 -0.061281 -1.16716 
-1.05512 0.139585 -1.15613 -0.904145 -0.0864301 -1.11783 -0.914312 -0.0358974 -1.10046 
-1.12687 -0.00547431 -1.14255 -1.10472 0.182418 -1.17394 -1.15837 0.0255994 -1.11864 
-1.06454 -0.0534303 -1.07365 -1.2164 -0.134221 -1.20231 -1.20847 0.100333 -1.11745 
-1.19539 -0.0596812 -1.1709 -1.18598 0.0133406 -1.13926 -1.10167 0.0688633 -1.01636 
-1.07654 0.135325 -1.04979 -1.03724 -0.0183065 -1.05952 -1.03812 -0.10567 -1.081 
-1.14454 -0.0502975 -1.11676 -1.21534 0.0872638 -1.06258 -0.999721 0.112045 -1.03348 
-0.922339 -0.0354127 -1.1106 -1.17791 -0.0979554 -1.02057 -1.10149 -0.0704883 -0.928536 
-1.10672 -0.0694735 -0.939939 -0.960219 0.050049 -0.896568 -0.859968 -0.134624 -0.973756 
-0.968492 -0.0669076 -0.887441 -0.966315 -0.00813597 -0.866464 -1.12307 -0.0114813 -0.873431 
-0.954143 0.0332181 -0.897173 -1.14507 -0.146483 -0.950361 -1.11947 -0.0587727 -0.932804 
-1.04884 -0.0010876 -0.845843 -0.966921 -0.0215957 -0.857369 -1.09262 -0.139258 -0.892584 
-1.06989 0.015834 -0.855471 -1.07123 0.0390255 -0.8447 -0.964282 -0.208926 -0.775819 
-1.01641 -0.15718 -0.822849 -1.09408 0.0509809 -0.730198 -1.10526 0.105764 -0.795977 
-0.931525 -0.0507589 -0.68999 -0.920937 -0.15804 -0.772484 -1.05552 -0.0919895 -0.768559 
-1.09174 0.107324 -0.729193 -1.185 0.181286 -0.771822 -1.22956 0.218808 -0.762966 
-1.13507 0.175002 -0.767916 -1.0399 0.0239732 -0.845941 -1.12077 0.0409039 -0.713739 
-1.07806 0.0159724 -0.659388 -0.998607 -0.103271 -0.655872 -0.955503 -0.0809711 -0.649942 
-0.957441 0.00412971 -0.668313 -1.05424 0.0128972 -0.695284 -1.11567 0.109859 -0.713948 
-1.02462 0.0728468 -0.571198 -1.11076 0.0227326 -0.653766 -1.0581 -0.260259 -0.660626 
-1.09674 -0.187604 -0.661135 -0.917667 -0.0825723 -0.597739 -0.903137 -0.0626823 -0.618694 
-0.918825 -0.0745457 -0.630145 -0.981793 -0.03774 -0.672541 -0.933584 0.0654867 -0.639453 
-1.09636 -0.00644754 -0.599564 -0.927815 -0.0557572 -0.548694 -1.20211 0.11334 -0.544684 
-1.12261 0.112501 -0.552888 -0.924852 -0.0109526 -0.420804 -0.937067 0.00432739 -0.443954 
-0.918801 0.0548237 -0.439576 -0.897172 0.0806651 -0.512448 -0.847372 0.101534 -0.422076 
-1.1057 -0.0822859 -0.615827 -0.828915 0.0824696 -0.406972 -1.13785 -0.0769281 -0.587752 
-1.09055 -0.10352 -0.46403 -0.988453 0.0186019 -0.450148 -1.10061 -0.0949063 -0.563437 
-0.957283 0.00957379 -0.38728 -1.07261 0.105866 -0.45442 -0.961353 -0.0318606 -0.39037 
-0.967448 -0.0122398 -0.391686 -0.979776 0.039326 -0.462503 -0.989053 0.0839823 -0.377224 
-0.947679 0.0108678 -0.418967 -0.93845 0.0589251 -0.276754 -0.846928 0.062574 -0.359309 
-0.882372 0.0380691 -0.38321 -0.920785 0.0407457 -0.382566 -0.893737 0.0477805 -0.345865 
-0.916973 0.084539 -0.341706 -0.972334 0.0991052 -0.442797 -0.913461 -0.0179495 -0.371641 
-1.25622 -0.111964 -0.605634 -1.02912 -0.0472918 -0.399088 -1.16223 0.0218913 -0.454074 
-0.960145 0.0776184 -0.344243 -1.09211 0.0258635 -0.440446 -0.968597 0.0444192 -0.421386 
-1.08738 0.143003 -0.447899 -0.859485 0.072255 -0.34907 -0.786442 0.0742667 -0.355889 
-0.952603 0.00568447 -0.228378 -0.889611 0.061009 -0.371126 -0.973238 -0.0533073 -0.433703 
-1.02497 -0.115271 -0.386046 -1.15453 -0.0815073 -0.352065 -1.14505 -0.0785692 -0.4826 
-1.21175 0.181819 -0.568592 -0.978756 -0.00548437 -0.386579 -0.872696 0.00800096 -0.351697 
-0.813522 0.0917162 -0.334403 -0.875459 -0.0904824 -0.374461 -0.951127 0.0630785 -0.39697 
-0.953652 0.0704685 -0.396113 -1.05896 -0.0826522 -0.450365 -1.05382 0.0178305 -0.44367 
-1.07862 0.0159172 -0.446643 -1.18941 -0.0379829 -0.503522 -1.0883 0.0224529 -0.380519 
-1.05785 -0.022812 -0.404988 -1.11062 0.101476 -0.438945 -1.09961 0.0249117 -0.466538 
-0.983357 0.029391 -0.416916 -0.91081 -0.0191734 -0.384121 -0.912246 -0.00596707 -0.323502 
-0.871211 0.133367 -0.38082 -0.883021 0.0387582 -0.374323 -0.962452 0.0458612 -0.404555 
-0.983813 -0.0724935 -0.418878 -0.947754 0.0623683 -0.395468 -1.12998 -0.0634144 -0.483675 
-1.00261 -0.175696 -0.452166 -1.11251 -0.0337483 -0.469698 -1.08844 0.0558576 -0.469841 
-1.02368 0.0375007 -0.433862 -1.07774 0.0629164 -0.459531 -1.05038 0.0116756 -0.442544 
-1.02048 0.0192722 -0.426008 -0.88333 0.0393145 -0.373714 -0.915105 -0.0114508 -0.385514 
-1.33799 0.0333986 -0.556507 -1.05012 -0.215277 -0.483247 -1.06626 0.0903427 -0.462647 
-0.88096 -0.0361252 -0.370038 -0.982987 -0.039708 -0.407059 -0.941425 0.0574694 -0.399116 
-0.965786 -0.0340677 -0.411675 -0.964354 -0.0300375 -0.383427 -0.925819 -0.0205216 -0.383336 
-0.883705 0.0316939 -0.372474 -0.85382 -0.0145504 -0.367618 -0.93455 0.0883729 -0.391093 
-1.09316 -0.0634069 -0.464527 -1.02783 0.1491 -0.351503 -0.791785 0.0965105 -0.345082 
-0.970549 -0.0453606 -0.399031 -0.975858 -0.00878059 -0.409116 -0.702785 0.0679749 -0.295112 
-1.13506 -0.210105 -0.49381 -1.12064 -0.236394 -0.46647 -1.23963 -0.115583 -0.54746 
-1.17432 -0.196322 -0.577079 -0.950128 0.0145772 -0.403092 -0.803574 0.0495056 -0.34171 
-0.941362 0.000206216 -0.397587 -0.988871 0.147597 -0.42724 -0.685134 -0.102859 -0.302609 
-0.935223 0.0188613 -0.38889 -0.928374 0.0284897 -0.394311 -0.913297 0.0346765 -0.380726 
-0.784648 0.255437 -0.244677 -0.931921 0.124297 -0.40804 -0.956172 -0.050615 -0.426059 
-0.837588 0.06668 -0.335225 -0.883416 0.0346412 -0.376329 -0.826866 0.0675817 -0.350002 
-0.862679 0.0883337 -0.36337 -0.888125 -0.0372657 -0.268284 -0.956151 -0.0142492 -0.404825 
-1.0692 0.00932767 -0.446088 -0.886825 0.0266335 -0.370986 -0.893155 0.0376389 -0.365363 
-1.06807 -0.190864 -0.522436 -0.965585 0.0586276 -0.2908 -0.945061 -0.0659637 -0.400715 
-0.843073 -0.00256445 -0.348981 -0.878214 0.0378921 -0.354325 -0.895107 0.0583296 -0.378337 
-0.801263 0.00890139 -0.339634 -0.835676 -0.032583 -0.381602 -0.802131 0.0617262 -0.328633 
-1.17184 0.130419 -0.0931173 -1.14349 0.0507461 -0.582233 -0.980732 0.0268685 -0.382364 
-0.902501 0.0647622 -0.365683 -0.969499 0.0785702 -0.39167 -1.16264 0.0422137 -0.473836 
-0.980623 -0.163346 -0.37239 -0.867258 -0.0713745 -0.431927 -0.699183 0.0961202 -0.287749 
-0.89331 -0.0707271 -0.374588 -1.06343 -0.0802796 -0.371282 -1.02041 0.00262408 -0.421598 
-0.988227 0.137404 -0.340524 -1.00352 0.0396193 -0.414412 -0.642234 -0.108967 -0.263245 
-0.630886 -0.0252942 -0.278489 -0.99892 -0.132295 -0.498812 -1.0968 0.0688975 -0.256254 
-0.95331 -0.0760674 -0.404475 -1.05692 -0.147475 -0.479304 -1.04297 0.111059 -0.532737 
-1.0042 0.0317842 -0.422041 -0.799172 -0.116211 -0.319395 -0.975212 -0.0103495 -0.394253 
-0.914703 -0.00504812 -0.387286 -0.652191 0.1219 -0.211976 -0.860281 -0.00663564 -0.368041 
-0.85113 0.0626448 -0.356094 -1.22965 -0.0728378 -0.519216 -0.910795 -0.0458454 -0.395574 
-0.843223 -0.0381441 -0.362254 -0.874735 0.0967799 -0.353503 -0.760145 -0.0315647 -0.317454 
-1.24004 0.302219 -0.294266 -0.848053 0.0116751 -0.355833 -0.984852 -0.00316695 -0.401601 
-0.78063 0.0312027 -0.306418 -1.02328 -0.0662069 -0.38086 -0.969368 0.215215 -0.415042 
-0.80357 -0.105759 -0.321344 -1.01317 0.193842 -0.796227 -0.729574 -0.064088 -0.329422 
-0.674694 0.0710215 -0.270684 -0.863694 0.132864 -0.333973 -0.864018 -0.136848 -0.690986 
-0.887999 0.169813 -0.617693 -0.767302 0.00268931 -0.301617 -1.24488 -0.170686 -0.417237 
-0.828256 -0.240769 -0.505935 -0.915463 0.187128 -0.46192 -0.796054 -0.0179437 -0.327595 
-0.669825 0.145893 -0.3259 -0.664201 0.24028 -0.21734 -0.873818 -0.0326129 -0.377871 
-0.843793 -0.0376191 -0.35805 -0.739301 -0.0785659 -0.30723 -0.747174 -0.068647 -0.304139 
-0.74883 0.0176474 -0.322076 -0.730519 -0.00340446 -0.29975 -0.761437 0.104237 -0.736364 
-0.817922 -0.0636161 -0.334909 -0.748821 -0.0556485 -0.324896 -0.726587 0.0336325 -0.302318 
-0.765922 -0.0273896 -0.317944 -0.832839 -0.0384039 -0.35996 -0.781979 0.000718741 -0.328826 