# vtk DataFile Version 4.0
Generated by LIGGGHTS
ASCII
DATASET POLYDATA
POINTS 684 float
-0.489493 0.00047343 -0.379398 -0.468593 0.0011047 -0.361935 -0.491948 -0.0446898 -0.360432 
-0.474288 0.0308303 -0.358022 -0.456675 0.0241639 -0.344714 -0.439311 -0.00152113 -0.341244 
-0.460114 0.0295421 -0.340574 -0.452473 0.0334911 -0.341875 -0.43841 0.0183223 -0.329675 
-0.423323 -0.0356278 -0.316364 -0.438643 0.0141381 -0.319442 -0.434155 -0.0279528 -0.310379 
-0.412694 -0.0186474 -0.305822 -0.419103 -0.0103191 -0.308591 -0.417232 0.0228271 -0.306607 
-0.403299 0.0128507 -0.304185 -0.413856 0.0206197 -0.301303 -0.406159 -0.0268502 -0.301377 
-0.408487 0.0140938 -0.29962 -0.398832 -0.00614062 -0.29458 -0.40457 0.00742647 -0.296697 
-0.397643 -0.00670492 -0.290534 -0.38721 0.00269775 -0.283552 -0.385094 0.0113824 -0.284417 
-0.394348 0.0265702 -0.282864 -0.396382 0.0324823 -0.283793 -0.404683 -0.0429769 -0.282654 
-0.382609 -0.0136802 -0.278862 -0.374384 -0.00386417 -0.284131 -0.387473 0.0159417 -0.279869 
-0.398887 0.0517123 -0.280039 -0.379755 0.00135504 -0.277089 -0.382987 -0.00560756 -0.275504 
-0.375268 0.0149069 -0.272829 -0.375276 -0.026039 -0.269628 -0.371642 0.00345767 -0.26989 
-0.367142 0.00237884 -0.266583 -0.37236 0.011785 -0.267661 -0.368408 0.0229393 -0.265466 
-0.358699 -0.00157826 -0.26207 -0.354999 0.00291187 -0.260274 -0.358081 -0.012699 -0.257543 
-0.35127 -0.00931547 -0.257243 -0.354339 -0.022385 -0.255266 -0.344623 -0.00970129 -0.253845 
-0.348088 0.000650121 -0.25534 -0.351446 0.00434556 -0.255886 -0.347733 0.0102153 -0.254488 
-0.386922 -0.0555432 -0.250843 -0.342008 -0.0122706 -0.248038 -0.337764 -0.0105009 -0.248344 
-0.34205 -0.00737935 -0.250831 -0.340879 0.00225052 -0.249933 -0.350243 0.0258827 -0.25155 
-0.343074 -0.0109422 -0.244998 -0.326967 -0.000509912 -0.244027 -0.331965 0.00267834 -0.246548 
-0.329822 0.00433062 -0.245206 -0.3356 0.0199175 -0.246043 -0.345237 0.025114 -0.247948 
-0.338305 -0.0272318 -0.243933 -0.330859 -0.0180991 -0.243883 -0.32882 -0.0152913 -0.243496 
-0.324959 -0.0123034 -0.241273 -0.324547 -0.00844437 -0.242442 -0.32136 -0.00160242 -0.24156 
-0.32071 0.00178514 -0.241264 -0.35078 0.0414984 -0.245518 -0.330333 -0.0277427 -0.240209 
-0.316712 -0.011598 -0.23889 -0.317895 0.00239238 -0.24004 -0.319946 0.0125325 -0.240261 
-0.325923 0.0259613 -0.240133 -0.30659 -0.0118312 -0.234665 -0.309338 0.00940952 -0.234907 
-0.305392 0.00840165 -0.234392 -0.307308 0.0129695 -0.234914 -0.326782 0.0315518 -0.236849 
-0.302007 -0.0148855 -0.231338 -0.302772 -0.0103821 -0.232599 -0.300133 -0.00764768 -0.232425 
-0.296855 -0.00532835 -0.23004 -0.2888 -0.00926664 -0.22749 -0.285506 -0.00746282 -0.226263 
-0.300221 0.0255614 -0.22845 -0.310073 -0.0470764 -0.225059 -0.290646 -0.0274194 -0.225058 
-0.290173 -0.021868 -0.22514 -0.281226 -0.0209219 -0.222694 -0.285444 -0.0178662 -0.225028 
-0.280543 -0.0167534 -0.22319 -0.288581 -0.0129728 -0.225892 -0.284043 -0.0108941 -0.225313 
-0.29273 -0.0098769 -0.225841 -0.276899 -0.00491866 -0.222719 -0.286563 -0.00308809 -0.225767 
-0.282815 -0.000214082 -0.223869 -0.286016 0.00567007 -0.226391 -0.283522 0.00783437 -0.225201 
-0.286292 0.0130841 -0.224951 -0.285003 0.0217371 -0.22404 -0.293723 -0.0401373 -0.222067 
-0.290828 -0.0350162 -0.221704 -0.277347 -0.0176521 -0.221686 -0.271868 -0.0103954 -0.220255 
-0.272563 0.00284727 -0.220923 -0.276375 0.00614534 -0.221251 -0.272602 0.00990351 -0.220564 
-0.270072 0.0083859 -0.219572 -0.275197 0.0125075 -0.221485 -0.27437 0.015444 -0.21936 
-0.288713 0.0310053 -0.22208 -0.282645 0.0279861 -0.2213 -0.285756 0.0336964 -0.221007 
-0.276911 -0.0276129 -0.219449 -0.272248 -0.0253212 -0.218109 -0.268288 -0.0200207 -0.217465 
-0.263373 -0.0171455 -0.215918 -0.269036 -0.0105594 -0.219054 -0.261599 -0.0116796 -0.215808 
-0.267089 0.00797013 -0.218341 -0.261756 0.0097381 -0.216023 -0.264112 0.0137971 -0.216604 
-0.269902 0.0140661 -0.219007 -0.267105 0.020013 -0.216884 -0.293819 -0.0529551 -0.215497 
-0.261691 -0.0163996 -0.213505 -0.257957 -0.0175911 -0.213577 -0.266908 -0.011088 -0.215031 
-0.257549 -0.0127394 -0.213972 -0.263165 -0.00918262 -0.214084 -0.256311 0.00214329 -0.214067 
-0.253878 0.00627024 -0.212868 -0.261671 -0.0361629 -0.210594 -0.260044 -0.0314859 -0.210251 
-0.253591 -0.0289361 -0.209414 -0.252171 -0.0211266 -0.210537 -0.249712 -0.0183638 -0.208698 
-0.250246 -0.0111551 -0.211106 -0.251912 -0.00573947 -0.212146 -0.249388 0.00229018 -0.210042 
-0.245125 0.00279759 -0.209179 -0.256565 0.0298595 -0.210354 -0.253039 -0.0364141 -0.206563 
-0.27124 -0.0206159 -0.206894 -0.235846 0.00607597 -0.204945 -0.243755 0.012382 -0.208229 
-0.239737 0.015246 -0.205054 -0.262065 0.0469126 -0.205472 -0.240282 -0.0368254 -0.201714 
-0.231173 -0.0125195 -0.202817 -0.229474 -0.00587243 -0.201546 -0.23396 -0.00300225 -0.203629 
-0.233671 0.011117 -0.203039 -0.23517 0.0220269 -0.202195 -0.234131 0.0270301 -0.201778 
-0.245609 0.0406961 -0.201376 -0.268261 0.058548 -0.202255 -0.225021 -0.0112883 -0.200312 
-0.225099 -0.00414686 -0.199851 -0.217876 -0.00459561 -0.197908 -0.220381 0.00332937 -0.197764 
-0.22176 0.00833281 -0.198238 -0.231438 0.0176937 -0.201199 -0.229555 -0.0384273 -0.195614 
-0.22241 -0.0266237 -0.196887 -0.231036 -0.0166666 -0.197203 -0.215381 -0.0130616 -0.196101 
-0.222636 -0.0083373 -0.197202 -0.215335 -0.00685963 -0.195563 -0.212519 0.00013083 -0.194476 
-0.215571 0.00529906 -0.196808 -0.214142 0.0106126 -0.195884 -0.217837 0.0148624 -0.19694 
-0.219275 0.025485 -0.195956 -0.213008 -0.0158804 -0.192413 -0.207086 -0.0107441 -0.192809 
-0.223149 0.00103107 -0.195732 -0.218045 -0.00219897 -0.195492 -0.20576 -0.0029967 -0.19274 
-0.20632 0.00131067 -0.192942 -0.205847 0.0064167 -0.19161 -0.235895 0.0149414 -0.191642 
-0.207236 0.0256248 -0.190854 -0.212795 -0.0427353 -0.187337 -0.220252 -0.00537779 -0.189145 
-0.23114 0.0101997 -0.186096 -0.225851 0.0263889 -0.18642 -0.230966 0.0573084 -0.187878 
-0.218349 0.0566779 -0.184534 -0.206362 0.0616182 -0.177375 -0.222428 0.0660807 -0.180607 
-0.205474 -0.0145831 -0.191739 -0.204655 0.0183982 -0.189927 -0.204913 0.0506534 -0.182421 
-0.203968 0.0109671 -0.189847 -0.201316 0.000383123 -0.189757 -0.085158 0.0518079 -0.128465 
-0.19997 -0.00949365 -0.188911 -0.199281 -0.00427978 -0.188877 -0.0763931 0.00775695 -0.126109 
-0.196879 9.65169e-05 -0.188938 -0.199411 0.00499282 -0.188947 -0.193746 0.00634609 -0.187653 
-0.197444 0.00848506 -0.189022 -0.194778 0.00935801 -0.186836 -0.0590658 0.0309853 -0.128192 
-0.0479793 -0.00549702 -0.126198 -0.188051 -0.009076 -0.185097 -0.190414 -0.00602733 -0.186185 
-0.19424 -0.0020863 -0.186742 -0.186784 0.00545317 -0.184759 -0.198316 -0.0429865 -0.18137 
-0.19311 -0.0328224 -0.18342 -0.187888 -0.0317946 -0.180345 -0.183435 -0.0174405 -0.182197 
-0.182185 -0.0105078 -0.182505 -0.180105 -0.00820292 -0.18173 -0.182593 -0.00480776 -0.181762 
-0.178557 0.00747326 -0.181079 -0.183722 0.0153172 -0.182576 -0.186009 0.0187997 -0.183217 
-0.186313 0.0249636 -0.182252 -0.077719 0.0402988 -0.132197 -0.18774 -0.0407475 -0.178982 
-0.174805 -0.0223537 -0.176902 -0.172691 -0.0122219 -0.177268 -0.171536 -0.00443184 -0.17824 
-0.180334 -0.000116177 -0.181212 -0.165986 0.00037161 -0.175997 -0.178265 0.00362075 -0.179999 
-0.175422 0.00685421 -0.178369 -0.172401 0.00616274 -0.178531 -0.187123 0.00821314 -0.180625 
-0.172376 0.0097232 -0.178269 -0.178308 0.0110787 -0.179316 -0.177446 0.0271967 -0.177859 
-0.178053 0.0355355 -0.176664 -0.188088 0.0393455 -0.179525 -0.169061 -0.0201966 -0.175866 
-0.165255 -0.0154062 -0.173874 -0.161395 -0.0143009 -0.17338 -0.171018 -0.0116861 -0.172582 
-0.166657 -0.0109627 -0.175884 -0.159412 -0.0120899 -0.172787 -0.157633 -0.00414208 -0.172457 
-0.162113 -0.00260287 -0.174316 -0.166943 0.00901228 -0.17603 -0.16915 0.0121382 -0.174746 
-0.1685 0.018132 -0.175951 -0.165391 0.0186563 -0.173483 -0.171573 0.0306664 -0.17497 
-0.171245 0.0363436 -0.173588 -0.157986 -0.0162069 -0.171769 -0.152273 -0.0151639 -0.169506 
-0.156332 -0.0126907 -0.170304 -0.155969 -0.00890846 -0.171553 -0.154298 -0.00221103 -0.171061 
-0.159425 0.00258984 -0.172075 -0.154483 0.00247922 -0.169942 -0.151219 0.0123747 -0.169206 
-0.162131 0.0185901 -0.1686 -0.160555 0.022636 -0.171144 -0.180713 0.0254062 -0.169384 
-0.158767 0.0278412 -0.170181 -0.172932 -0.0516888 -0.169037 -0.148773 -0.0219957 -0.16713 
-0.151293 -0.0210053 -0.168404 -0.146659 -0.0150829 -0.167141 -0.158351 -0.0137719 -0.166338 
-0.144962 -0.0125331 -0.166674 -0.15055 -0.00620157 -0.168295 -0.160266 0.00135506 -0.167494 
-0.148124 0.000724908 -0.168461 -0.142337 0.00150511 -0.165983 -0.142602 0.00789572 -0.165896 
-0.143463 0.0107892 -0.166196 -0.170127 0.01559 -0.16664 -0.148753 0.0144485 -0.166872 
-0.16964 0.0234109 -0.169495 -0.156341 0.0320333 -0.168385 -0.157187 0.0361434 -0.167845 
-0.148487 -0.0335931 -0.164837 -0.144771 -0.0227326 -0.165278 -0.14938 -0.0192338 -0.165957 
-0.138696 -0.0180782 -0.163482 -0.1401 -0.0139958 -0.164445 -0.152842 -0.0124074 -0.165425 
-0.143079 -0.00736865 -0.165105 -0.13754 -0.00705041 -0.163886 -0.14056 -0.00389493 -0.165274 
-0.138354 0.00153994 -0.163265 -0.140811 0.00451715 -0.165241 -0.140039 0.0106529 -0.163625 
-0.135708 0.00829811 -0.16186 -0.140008 0.0156841 -0.163159 -0.148538 0.0249635 -0.165483 
-0.144661 0.0297715 -0.163983 -0.15635 0.0336197 -0.162671 -0.138718 -0.0351413 -0.160418 
-0.132924 -0.0238578 -0.160228 -0.13427 -0.0187434 -0.16046 -0.136579 -0.0141794 -0.161886 
-0.128957 -0.00968653 -0.159036 -0.143533 -0.00670553 -0.160995 -0.130971 -0.0044117 -0.161195 
-0.13477 -0.000856642 -0.159426 -0.128336 -0.0026871 -0.160141 -0.131701 0.00807219 -0.161194 
-0.133059 0.0123527 -0.161655 -0.136893 0.0198405 -0.161279 -0.135423 -0.0373371 -0.158573 
-0.132255 -0.0326021 -0.157167 -0.120889 -0.0147079 -0.156344 -0.123937 -0.0108165 -0.156809 
-0.119844 -0.00797772 -0.155172 -0.115875 -0.00500186 -0.154857 -0.124616 -0.00196284 -0.157501 
[...]
POINT_DATA 684
FIELD FieldData 7
id 1 684 int
16 30 34 31 3 19 26 68 32 
2 27 108 99 7 1 22 5 33 
21 6 60 23 13 36 28 11 58 
10 142 41 38 57 92 8 79 40 
101 130 48 54 42 4 63 67 53 
46 14 44 126 88 83 49 29 59 
162 134 122 45 43 93 76 20 62 
15 50 100 87 75 104 18 85 148 
72 132 51 70 71 114 116 181 69 
17 84 35 177 163 61 52 74 109 
12 166 47 192 156 64 77 158 174 
154 37 147 39 94 96 145 65 73 
55 133 82 91 233 146 120 112 245 
125 111 138 25 150 118 95 98 81 
175 187 167 200 188 136 157 137 176 
86 110 89 196 182 244 143 222 231 
103 257 274 66 139 159 186 78 90 
227 80 198 140 124 144 128 209 153 
127 105 268 232 203 224 204 228 202 
121 135 97 113 171 170 234 246 123 
185 141 270 161 165 281 304 327 216 
265 183 201 194 215 238 178 243 463 
191 117 429 155 164 239 259 262 353 
453 218 211 102 180 230 287 129 119 
219 252 152 260 131 206 271 401 290 
205 214 149 302 236 282 309 314 277 
220 151 278 258 199 275 189 251 254 
208 250 284 172 289 279 288 318 223 
210 212 221 115 106 207 190 307 160 
293 184 292 299 347 315 286 249 295 
169 193 272 308 345 310 197 300 266 
342 311 325 320 312 337 313 225 317 
217 235 168 240 333 269 305 267 256 
323 301 107 365 179 229 253 372 247 
379 285 322 261 242 348 355 321 241 
316 273 331 329 226 280 352 213 324 
373 237 381 358 328 374 248 335 297 
330 349 291 380 389 264 283 370 173 
392 332 319 294 255 413 346 303 344 
371 338 326 378 334 354 350 405 336 
391 296 359 276 376 394 388 400 341 
395 298 384 396 393 306 367 385 382 
339 362 404 398 403 351 409 412 340 
415 386 375 369 383 432 408 343 363 
402 387 364 419 397 414 446 407 410 
356 441 360 377 437 425 430 426 479 
390 478 411 417 477 406 418 452 368 
428 399 450 427 480 435 416 421 431 
357 460 469 422 434 681 675 684 686 
445 366 678 490 443 500 677 475 195 
464 433 361 504 494 524 424 513 476 
442 482 472 448 465 495 436 449 486 
489 532 455 522 457 514 487 493 517 
447 423 420 526 528 492 474 444 499 
511 468 440 523 498 519 438 506 439 
466 518 525 481 483 507 503 509 540 
501 458 529 538 462 467 470 520 485 
542 491 527 497 534 516 461 459 502 
535 531 543 473 508 484 505 454 510 
521 471 530 488 512 545 539 537 496 
515 544 451 541 550 533 553 536 263 
549 555 551 546 557 554 556 456 552 
548 547 565 563 570 558 561 560 568 
567 566 559 569 562 564 578 577 583 
573 580 582 572 571 575 576 574 581 
594 579 596 593 591 592 586 588 589 
585 584 595 590 587 602 607 608 603 
601 600 604 597 599 605 606 619 609 
621 598 617 618 614 620 615 622 616 
611 613 610 630 612 628 623 634 625 
635 632 627 629 626 633 624 631 639 
637 638 645 647 644 642 641 648 636 
643 646 658 654 640 650 659 655 660 
651 656 653 649 652 661 657 672 663 
667 674 670 665 671 669 668 673 662 
682 664 680 679 685 666 687 683 676 

type 1 684 int
1 1 1 1 1 1 1 1 1 
1 1 1 1 1 1 1 1 1 
1 1 1 1 1 1 1 1 1 
1 1 1 1 1 1 1 1 1 
1 1 1 1 1 1 1 1 1 
1 1 1 1 1 1 1 1 1 
1 1 1 1 1 1 1 1 1 
1 1 1 1 1 1 1 1 1 
1 1 1 1 1 1 1 1 1 
1 1 1 1 1 1 1 1 1 
1 1 1 1 1 1 1 1 1 
1 1 1 1 1 1 1 1 1 
1 1 1 1 1 1 1 1 1 
1 1 1 1 1 1 1 1 1 
1 1 1 1 1 1 1 1 1 
1 1 1 1 1 1 1 1 1 
1 1 1 1 1 1 1 1 1 
1 1 1 1 1 1 1 1 1 
1 1 1 1 1 1 1 1 1 
1 1 1 1 1 1 1 1 1 
1 1 1 1 1 1 1 1 1 
1 1 1 1 1 1 1 1 1 
1 1 1 1 1 1 1 1 1 
1 1 1 1 1 1 1 1 1 
1 1 1 1 1 1 1 1 1 
1 1 1 1 1 1 1 1 1 
1 1 1 1 1 1 1 1 1 
1 1 1 1 1 1 1 1 1 
1 1 1 1 1 1 1 1 1 
1 1 1 1 1 1 1 1 1 
1 1 1 1 1 1 1 1 1 
1 1 1 1 1 1 1 1 1 
1 1 1 1 1 1 1 1 1 
1 1 1 1 1 1 1 1 1 
1 1 1 1 1 1 1 1 1 
1 1 1 1 1 1 1 1 1 
1 1 1 1 1 1 1 1 1 
1 1 1 1 1 1 1 1 1 
1 1 1 1 1 1 1 1 1 
1 1 1 1 1 1 1 1 1 
1 1 1 1 1 1 1 1 1 
1 1 1 1 1 1 1 1 1 
1 1 1 1 1 1 1 1 1 
1 1 1 1 1 1 1 1 1 
1 1 1 1 1 1 1 1 1 
1 1 1 1 1 1 1 1 1 
1 1 1 1 1 1 1 1 1 
1 1 1 1 1 1 1 1 1 
1 1 1 1 1 1 1 1 1 
1 1 1 1 1 1 1 1 1 
1 1 1 1 1 1 1 1 1 
1 1 1 1 1 1 1 1 1 
1 1 1 1 1 1 1 1 1 
1 1 1 1 1 1 1 1 1 
1 1 1 1 1 1 1 1 1 
1 1 1 1 1 1 1 1 1 
1 1 1 1 1 1 1 1 1 
1 1 1 1 1 1 1 1 1 
1 1 1 1 1 1 1 1 1 
1 1 1 1 1 1 1 1 1 
1 1 1 1 1 1 1 1 1 
1 1 1 1 1 1 1 1 1 
1 1 1 1 1 1 1 1 1 
1 1 1 1 1 1 1 1 1 
1 1 1 1 1 1 1 1 1 
1 1 1 1 1 1 1 1 1 
1 1 1 1 1 1 1 1 1 
1 1 1 1 1 1 1 1 1 
1 1 1 1 1 1 1 1 1 
1 1 1 1 1 1 1 1 1 
1 1 1 1 1 1 1 1 1 
1 1 1 1 1 1 1 1 1 
1 1 1 1 1 1 1 1 1 
1 1 1 1 1 1 1 1 1 
1 1 1 1 1 1 1 1 1 
1 1 1 1 1 1 1 1 1 

i 3 684 int
0 0 0 0 0 0 0 0 0 
0 0 0 0 0 0 0 0 0 
0 0 0 0 0 0 0 0 0 
0 0 0 0 0 0 0 0 0 
0 0 0 0 0 0 0 0 0 
0 0 0 0 0 0 0 0 0 
0 0 0 0 0 0 0 0 0 
0 0 0 0 0 0 0 0 0 
0 0 0 0 0 0 0 0 0 
0 0 0 0 0 0 0 0 0 
0 0 0 0 0 0 0 0 0 
0 0 0 0 0 0 0 0 0 
0 0 0 0 0 0 0 0 0 
0 0 0 0 0 0 0 0 0 
0 0 0 0 0 0 0 0 0 
0 0 0 0 0 0 0 0 0 
0 0 0 0 0 0 0 0 0 
0 0 0 0 0 0 0 0 0 
0 0 0 0 0 0 0 0 0 
0 0 0 0 0 0 0 0 0 
0 0 0 0 0 0 0 0 0 
0 0 0 0 0 0 0 0 0 
0 0 0 0 0 0 0 0 0 
0 0 0 0 0 0 0 0 0 
0 0 0 0 0 0 0 0 0 
0 0 0 0 0 0 0 0 0 
0 0 0 0 0 0 0 0 0 
0 0 0 0 0 0 0 0 0 
0 0 0 0 0 0 0 0 0 
0 0 0 0 0 0 0 0 0 
0 0 0 0 0 0 0 0 0 
0 0 0 0 0 0 0 0 0 
0 0 0 0 0 0 0 0 0 
0 0 0 0 0 0 0 0 0 
0 0 0 0 0 0 0 0 0 
0 0 0 0 0 0 0 0 0 
0 0 0 0 0 0 0 0 0 
0 0 0 0 0 0 0 0 0 
0 0 0 0 0 0 0 0 0 
0 0 0 0 0 0 0 0 0 
0 0 0 0 0 0 0 0 0 
0 0 0 0 0 0 0 0 0 
0 0 0 0 0 0 0 0 0 
0 0 0 0 0 0 0 0 0 
0 0 0 0 0 0 0 0 0 
0 0 0 0 0 0 0 0 0 
0 0 0 0 0 0 0 0 0 
0 0 0 0 0 0 0 0 0 
0 0 0 0 0 0 0 0 0 
0 0 0 0 0 0 0 0 0 
0 0 0 0 0 0 0 0 0 
0 0 0 0 0 0 0 0 0 
0 0 0 0 0 0 0 0 0 
0 0 0 0 0 0 0 0 0 
0 0 0 0 0 0 0 0 0 
0 0 0 0 0 0 0 0 0 
0 0 0 0 0 0 0 0 0 
0 0 0 0 0 0 0 0 0 
0 0 0 0 0 0 0 0 0 
0 0 0 0 0 0 0 0 0 
0 0 0 0 0 0 0 0 0 
0 0 0 0 0 0 0 0 0 
0 0 0 0 0 0 0 0 0 
0 0 0 0 0 0 0 0 0 
0 0 0 0 0 0 0 0 0 
0 0 0 0 0 0 0 0 0 
0 0 0 0 0 0 0 0 0 
0 0 0 0 0 0 0 0 0 
0 0 0 0 0 0 0 0 0 
0 0 0 0 0 0 0 0 0 
0 0 0 0 0 0 0 0 0 
0 0 0 0 0 0 0 0 0 
0 0 0 0 0 0 0 0 0 
0 0 0 0 0 0 0 0 0 
0 0 0 0 0 0 0 0 0 
0 0 0 0 0 0 0 0 0 
0 0 0 0 0 0 0 0 0 
0 0 0 0 0 0 0 0 0 
0 0 0 0 0 0 0 0 0 
0 0 0 0 0 0 0 0 0 
0 0 0 0 0 0 0 0 0 
0 0 0 0 0 0 0 0 0 
0 0 0 0 0 0 0 0 0 
0 0 0 0 0 0 0 0 0 
0 0 0 0 0 0 0 0 0 
0 0 0 0 0 0 0 0 0 
0 0 0 0 0 0 0 0 0 
0 0 0 0 0 0 0 0 0 
0 0 0 0 0 0 0 0 0 
0 0 0 0 0 0 0 0 0 
0 0 0 0 0 0 0 0 0 
0 0 0 0 0 0 0 0 0 
0 0 0 0 0 0 0 0 0 
0 0 0 0 0 0 0 0 0 
0 0 0 0 0 0 0 0 0 
0 0 0 0 0 0 0 0 0 
0 0 0 0 0 0 0 0 0 
0 0 0 0 0 0 0 0 0 
0 0 0 0 0 0 0 0 0 
0 0 0 0 0 0 0 0 0 
0 0 0 0 0 0 0 0 0 
0 0 0 0 0 0 0 0 0 
0 0 0 0 0 0 0 0 0 
0 0 0 0 0 0 0 0 0 
0 0 0 0 0 0 0 0 0 
0 0 0 0 0 0 0 0 0 
0 0 0 0 0 0 0 0 0 
0 0 0 0 0 0 0 0 0 
0 0 0 0 0 0 0 0 0 
0 0 0 0 0 0 0 0 0 
0 0 0 0 0 0 0 0 0 
0 0 0 0 0 0 0 0 0 
0 0 0 0 0 0 0 0 0 
0 0 0 0 0 0 0 0 0 
0 0 0 0 0 0 0 0 0 
0 0 0 0 0 0 0 0 0 
0 0 0 0 0 0 0 0 0 
0 0 0 0 0 0 0 0 0 
0 0 0 0 0 0 0 0 0 
0 0 0 0 0 0 0 0 0 
0 0 0 0 0 0 0 0 0 
0 0 0 0 0 0 0 0 0 
0 0 0 0 0 0 0 0 0 
0 0 0 0 0 0 0 0 0 
0 0 0 0 0 0 0 0 0 
0 0 0 0 0 0 0 0 0 
0 0 0 0 0 0 0 0 0 
0 0 0 0 0 0 0 0 0 
0 0 0 0 0 0 0 0 0 
0 0 0 0 0 0 0 0 0 
0 0 0 0 0 0 0 0 0 
0 0 0 0 0 0 0 0 0 
0 0 0 0 0 0 0 0 0 
0 0 0 0 0 0 0 0 0 
0 0 0 0 0 0 0 0 0 
0 0 0 0 0 0 0 0 0 
0 0 0 0 0 0 0 0 0 
0 0 0 0 0 0 0 0 0 
0 0 0 0 0 0 0 0 0 
0 0 0 0 0 0 0 0 0 
0 0 0 0 0 0 0 0 0 
0 0 0 0 0 0 0 0 0 
0 0 0 0 0 0 0 0 0 
0 0 0 0 0 0 0 0 0 
0 0 0 0 0 0 0 0 0 
0 0 0 0 0 0 0 0 0 
0 0 0 0 0 0 0 0 0 
0 0 0 0 0 0 0 0 0 
0 0 0 0 0 0 0 0 0 
0 0 0 0 0 0 0 0 0 
0 0 0 0 0 0 0 0 0 
0 0 0 0 0 0 0 0 0 
0 0 0 0 0 0 0 0 0 
0 0 0 0 0 0 0 0 0 
0 0 0 0 0 0 0 0 0 
0 0 0 0 0 0 0 0 0 
0 0 0 0 0 0 0 0 0 
0 0 0 0 0 0 0 0 0 
0 0 0 0 0 0 0 0 0 
0 0 0 0 0 0 0 0 0 
0 0 0 0 0 0 0 0 0 
0 0 0 0 0 0 0 0 0 
0 0 0 0 0 0 0 0 0 
0 0 0 0 0 0 0 0 0 
0 0 0 0 0 0 0 0 0 
0 0 0 0 0 0 0 0 0 
0 0 0 0 0 0 0 0 0 
0 0 0 0 0 0 0 0 0 
0 0 0 0 0 0 0 0 0 
0 0 0 0 0 0 0 0 0 
0 0 0 0 0 0 0 0 0 
0 0 0 0 0 0 0 0 0 
0 0 0 0 0 0 0 0 0 
0 0 0 0 0 0 0 0 0 
0 0 0 0 0 0 0 0 0 
0 0 0 0 0 0 0 0 0 
0 0 0 0 0 0 0 0 0 
0 0 0 0 0 0 0 0 0 
0 0 0 0 0 0 0 0 0 
0 0 0 0 0 0 0 0 0 
0 0 0 0 0 0 0 0 0 
0 0 0 0 0 0 0 0 0 
0 0 0 0 0 0 0 0 0 
0 0 0 0 0 0 0 0 0 
0 0 0 0 0 0 0 0 0 
0 0 0 0 0 0 0 0 0 
0 0 0 0 0 0 0 0 0 
0 0 0 0 0 0 0 0 0 
0 0 0 0 0 0 0 0 0 
0 0 0 0 0 0 0 0 0 
0 0 0 0 0 0 0 0 0 
0 0 0 0 0 0 0 0 0 
0 0 0 0 0 0 0 0 0 
0 0 0 0 0 0 0 0 0 
0 0 0 0 0 0 0 0 0 
0 0 0 0 0 0 0 0 0 
0 0 0 0 0 0 0 0 0 
0 0 0 0 0 0 0 0 0 
0 0 0 0 0 0 0 0 0 
0 0 0 0 0 0 0 0 0 
0 0 0 0 0 0 0 0 0 
0 0 0 0 0 0 0 0 0 
0 0 0 0 0 0 0 0 0 
0 0 0 0 0 0 0 0 0 
0 0 0 0 0 0 0 0 0 
0 0 0 0 0 0 0 0 0 
0 0 0 0 0 0 0 0 0 
0 0 0 0 0 0 0 0 0 
0 0 0 0 0 0 0 0 0 
0 0 0 0 0 0 0 0 0 
0 0 0 0 0 0 0 0 0 
0 0 0 0 0 0 0 0 0 
0 0 0 0 0 0 0 0 0 
0 0 0 0 0 0 0 0 0 
0 0 0 0 0 0 0 0 0 
0 0 0 0 0 0 0 0 0 
0 0 0 0 0 0 0 0 0 
0 0 0 0 0 0 0 0 0 
0 0 0 0 0 0 0 0 0 
0 0 0 0 0 0 0 0 0 
0 0 0 0 0 0 0 0 0 
0 0 0 0 0 0 0 0 0 
0 0 0 0 0 0 0 0 0 
0 0 0 0 0 0 0 0 0 
0 0 0 0 0 0 0 0 0 
0 0 0 0 0 0 0 0 0 
0 0 0 0 0 0 0 0 0 
0 0 0 0 0 0 0 0 0 

v 3 684 double
-1.38458 0.0121135 -1.7392 -1.31226 0.152563 -1.63477 -1.39956 0.0102656 -1.66527 
-1.33504 -0.0723053 -1.64696 -1.35171 0.195162 -1.53431 -1.14656 0.0761887 -1.47834 
-1.34235 -0.114898 -1.56147 -1.2104 -0.111715 -1.57979 -1.29371 0.154395 -1.41973 
-1.12274 0.0154003 -1.36205 -1.37864 0.0410424 -1.46454 -1.34684 0.255768 -1.38748 
-1.29568 0.280331 -1.36744 -1.28265 -0.0239591 -1.25906 -1.26435 0.0221371 -1.3008 
-1.14007 0.0619945 -1.23253 -1.25753 0.0630385 -1.18031 -1.18685 -0.0202596 -1.23359 
-1.27086 -0.0159577 -1.20004 -1.17123 0.0260053 -1.14142 -1.17479 0.0230187 -1.12801 
-1.20375 0.00503665 -1.07999 -1.21196 0.0390049 -1.03835 -1.08435 0.0642844 -1.02409 
-1.2302 0.00574051 -1.06265 -1.22067 0.0285474 -1.06806 -1.28551 0.102613 -1.16328 
-1.116 0.019221 -0.968112 -1.36559 -0.0590547 -1.38191 -1.24643 -0.117866 -1.05063 
-1.0323 0.152826 -1.0079 -1.22662 -0.116708 -0.98709 -1.34796 0.269572 -1.02694 
-1.22068 -0.298572 -1.01493 -1.10241 -0.0910185 -0.884378 -1.19979 -0.0555813 -0.913985 
-1.20344 -0.0768672 -0.879301 -1.37075 -0.249623 -0.975486 -1.19319 -0.0892842 -0.886615 
-1.08092 -0.0613343 -0.792962 -1.07951 0.0100131 -0.755761 -1.31844 0.0999611 -0.791978 
-0.973525 -0.054984 -0.710424 -1.27485 0.17461 -0.84028 -0.950694 -0.0282768 -0.692525 
-1.1745 -0.054974 -0.718454 -1.20031 -0.116061 -0.752426 -1.16531 -0.100774 -0.713152 
-1.19839 0.239857 -1.02363 -1.00125 -0.056749 -0.544396 -1.13593 0.0982091 -0.585645 
-1.21623 0.0824053 -0.65475 -1.16483 0.0470791 -0.646681 -1.277 -0.273313 -0.785529 
-1.07355 0.0243757 -0.532182 -0.897524 -0.017237 -0.412264 -0.913346 -0.0732549 -0.49787 
-1.08484 0.0562598 -0.525496 -1.14832 -0.0493155 -0.599491 -1.11646 -0.190801 -0.605179 
-1.22816 0.208558 -0.654426 -1.15392 0.253472 -0.577216 -1.16496 0.313566 -0.578668 
-1.16235 0.0278991 -0.484199 -1.14927 0.0317068 -0.488082 -1.08663 0.00765181 -0.439893 
-1.0788 0.0372948 -0.452358 -1.27791 -0.159827 -0.761856 -1.24862 0.224029 -0.609951 
-1.09985 -0.0273227 -0.489463 -1.04768 -0.0260057 -0.43717 -1.11977 -0.115137 -0.478483 
-1.0697 -0.178245 -0.502007 -1.04515 -0.14584 -0.390863 -1.10643 0.0348847 -0.463764 
-1.12012 -0.0439132 -0.475572 -1.11305 0.0747653 -0.477356 -1.25689 0.0342867 -0.54741 
-0.990991 -0.0131787 -0.403622 -1.16178 -0.0507698 -0.86808 -1.08136 0.00912761 -0.456329 
-1.07634 0.0150979 -0.454371 -0.904615 0.0204673 -0.382939 -0.836438 0.0371668 -0.353991 
-1.16664 -0.0299436 -0.494143 -1.19456 0.296769 -0.619491 -1.11309 0.060832 -0.456654 
-1.00801 -0.0485881 -0.410174 -0.914306 0.038738 -0.389015 -0.655352 -0.00505754 -0.272738 
-0.949821 0.0975236 -0.414906 -0.983448 0.068064 -0.484813 -1.00044 0.0207492 -0.42306 
-1.09506 -0.0318158 -0.697701 -0.898965 -0.0158889 -0.379525 -1.01222 0.0403889 -0.449461 
-1.02957 0.0630463 -0.397535 -1.10042 0.102921 -0.45717 -1.07224 0.0930324 -0.446635 
-1.18275 -0.100213 -0.497854 -1.09163 -0.0459729 -0.471154 -1.08162 -0.0111279 -0.391228 
-1.0291 0.00636256 -0.392899 -0.929707 0.0584042 -0.399057 -0.968383 0.068044 -0.412191 
-0.942814 -0.0475252 -0.403334 -0.960127 -0.023215 -0.39866 -0.858438 -0.0382832 -0.353759 
-1.03626 -0.0412396 -0.4418 -0.853441 0.0157959 -0.351809 -0.956161 0.0732679 -0.356971 
-0.928959 0.0160216 -0.362044 -0.784284 -0.0492518 -0.418841 -0.953433 0.170204 -0.240583 
-1.16714 0.15907 -0.515799 -0.810811 -0.0366888 -0.332965 -1.22791 0.0224827 -0.495247 
-0.714368 -0.0203476 -0.299347 -0.953592 0.113657 -0.409374 -1.09013 -0.162249 -0.436966 
-1.00348 0.0127274 -0.42049 -0.934994 -0.0372982 -0.40232 -1.0486 -0.0301681 -0.451426 
-1.0619 -0.0385939 -0.454743 -1.11944 -0.118401 -0.499522 -1.08148 0.334176 -0.63971 
-0.790608 0.0173879 -0.295033 -0.8134 -0.0568267 -0.337283 -0.992768 0.13013 -0.435438 
-1.04362 -0.135215 -0.418004 -0.955724 0.175348 -0.506419 -0.997551 -0.0703793 -0.421143 
-1.12018 -0.078124 -0.47012 -1.01467 0.242623 -0.52171 -1.02007 0.0547488 -0.421015 
-0.866667 0.232235 -0.439034 -1.03571 0.211864 -0.514161 -1.03558 -0.0652057 -0.434672 
-0.936547 0.15494 -0.437322 -1.03294 0.0232294 -0.431953 -1.02557 0.16602 -0.434614 
-0.917147 -0.0150126 -0.402239 -1.12958 -0.0373001 -0.469335 -1.11703 -0.0821103 -0.437159 
-0.831998 -0.0824634 -0.370756 -0.87489 0.193311 -0.388104 -1.01956 -0.0576342 -0.44055 
-0.964645 -0.0576459 -0.405225 -1.00539 -0.00419078 -0.412485 -1.0539 -0.0149591 -0.468946 
-0.880817 0.00383821 -0.362857 -0.898017 -0.00932436 -0.367391 -0.897497 0.025911 -0.374288 
-0.830295 0.0049523 -0.353664 -1.02689 -0.0342104 -0.446741 -0.789253 0.0964626 -0.296824 
-0.884295 0.000331617 -0.372453 -1.02415 -0.268212 -0.537367 -0.808214 -0.128619 -0.335032 
-0.878377 -0.0540959 -0.357872 -0.846984 0.131843 -0.36303 -0.766125 -0.0250811 -0.318732 
-0.919912 -0.0391419 -0.383515 -1.00245 0.016928 -0.411296 -1.11009 -0.153815 -0.390179 
-0.901534 -0.103926 -0.361717 -0.997842 -0.147229 -0.396518 -0.769938 -0.0392141 -0.315268 
-0.859813 -0.0513145 -0.374954 -0.893744 0.0650928 -0.379941 -0.824364 0.0661574 -0.351685 
-0.865651 -0.00725919 -0.362228 -0.893331 0.0872205 -0.360092 -0.824009 0.00556602 -0.350414 
-0.907321 -0.169273 -0.406947 -0.942255 -0.0160329 -0.483357 -0.896657 -0.0317152 -0.367628 
-1.21758 0.317365 -0.660782 -1.14014 0.0606934 -0.722033 -0.781807 -0.0729517 -0.324915 
-0.744014 -0.0222941 -0.309529 -0.806112 -0.00929977 -0.358195 -1.08769 0.00294689 -0.477558 
-0.850413 -0.0328053 -0.354044 -0.908369 0.0235494 -0.368066 -1.15942 0.198165 -0.474943 
-1.4231 -0.13074 -0.775082 -1.02611 0.170517 -0.796115 -1.07132 -0.210071 -0.510569 
-0.752097 -0.148318 -0.361333 -0.802401 -0.103946 -0.317368 -0.985516 -0.301113 -0.62777 
-0.934684 -0.047924 -0.381672 -0.85853 -0.11244 -0.37225 -1.05199 -0.0229737 -0.429045 
-0.894232 0.0638277 -0.312581 -0.733012 -0.0179608 -0.314188 -0.912858 0.295066 -0.534124 
-0.895858 -0.0272223 -0.367034 -0.803906 -0.0742328 -0.34317 -0.739565 0.117709 -0.550095 
-0.712007 -0.0482977 -0.30504 -0.796513 0.0163707 -0.341424 -0.607779 -0.0639831 -0.26786 
-0.763403 0.0107177 -0.324641 -0.790484 -0.0292148 -0.332973 -0.389212 -0.0568653 -0.186483 
-0.346942 0.175163 -0.281592 -0.778409 -0.0204937 -0.320697 -0.787616 -0.0911649 -0.336378 
-0.852302 -0.0706687 -0.353618 -0.863366 0.000513722 -0.369009 -0.836156 0.049215 -0.34932 
-0.938756 -0.125058 -0.348317 -0.760107 0.0791853 -0.339015 -0.757495 0.286382 -0.346698 
-0.68898 -0.0293278 -0.281 -0.766079 0.035704 -0.325123 -0.822398 -0.0148374 -0.354674 
-0.674414 -0.0119184 -0.244557 -0.837881 -0.00133434 -0.349753 -0.819229 0.0203841 -0.340008 
-0.688233 -0.0040247 -0.290526 -0.663574 0.129718 -0.712799 -1.04174 -0.0507863 -0.415283 
-0.854575 -0.0692618 -0.39045 -0.670911 -0.0843483 -0.272493 -0.715779 0.0240327 -0.294971 
-0.934733 -0.000532115 -0.701004 -0.569255 0.0729027 -0.24654 -0.904368 -0.106949 -0.290137 
-0.848359 0.0481876 -0.366584 -0.776559 -0.0272241 -0.30859 -1.25017 0.0617535 -0.530773 
-0.85859 -0.088142 -0.374318 -0.934128 0.0855009 -0.230014 -0.803593 0.053576 -0.394863 
-0.882913 0.133264 -0.315569 -0.852411 -0.0924645 -0.382568 -0.859761 -0.0750481 -0.331818 
-0.725547 -0.0583066 -0.296575 -0.724926 0.0285603 -0.294397 -0.694308 -0.0741074 -0.251181 
-0.674278 0.0187374 -0.291874 -0.731518 -0.0153095 -0.30223 -0.645448 0.0182808 -0.265372 
-0.586336 0.0282451 -0.251567 -0.69027 0.0650801 -0.257325 -0.877048 0.111897 -0.526411 
-0.862647 0.152599 -0.319746 -0.83442 0.0788908 -0.297821 -1.02705 0.225399 -0.380383 
-0.896894 -0.0332701 -0.382015 -0.793441 -0.0689809 -0.355302 -0.682073 -0.0369534 -0.277936 
-0.73411 -0.0770504 -0.328724 -0.616495 -0.0658016 -0.259876 -0.696699 -0.0453507 -0.287211 
-0.786898 -0.0743988 -0.344238 -0.663693 0.0222882 -0.234559 -0.567383 0.0714699 -0.29575 
-1.04962 -0.0645066 -0.149812 -0.811109 0.104786 -0.183554 -1.05368 0.0855229 -0.0777405 
-0.834449 0.0526782 -0.335014 -1.09103 -0.033067 -0.434087 -0.692626 -0.0176162 -0.152251 
-0.71792 -0.130432 -0.275725 -0.707852 -0.00816985 -0.301601 -1.11278 -0.076165 -0.339992 
-0.711698 0.00194676 -0.304278 -0.755537 0.00370965 -0.325492 -1.02161 0.166315 -0.544016 
-0.765041 0.0301356 -0.329424 -0.594578 0.0310778 -0.243238 -0.617992 0.0248591 -0.265821 
-0.625971 0.0282844 -0.270514 -0.939632 0.16724 -0.429102 -0.729549 -0.000979764 -0.282086 
-0.982782 0.130554 -0.706291 -0.72721 0.00562187 -0.299619 -0.776712 0.0305012 -0.312036 
-0.778554 -0.16541 -0.263512 -0.734973 -0.103689 -0.336274 -1.14113 0.145033 -0.423789 
-0.667148 -0.0318037 -0.273189 -0.723644 0.0146374 -0.304289 -0.792257 -0.0130251 -0.554991 
-0.711556 -0.00287208 -0.276935 -0.716172 0.0167647 -0.306982 -0.669892 -0.00293641 -0.286684 
-0.672301 -0.0191791 -0.277042 -0.623672 0.0739984 -0.253136 -0.585175 0.0310431 -0.256621 
-0.619376 -0.0433197 -0.286708 -0.592625 0.0323495 -0.249268 -0.780614 0.0657728 -0.301165 
-0.709776 -0.0677892 -0.317439 -0.805306 0.00941371 -0.254819 -0.753493 0.317108 -0.381196 
-0.702062 -0.119343 -0.281106 -0.608456 0.0281675 -0.263514 -0.737213 -0.0286447 -0.302522 
-0.596558 -0.0550323 -0.251218 -1.18726 0.0556993 -0.17849 -0.635108 -0.0357843 -0.263051 
-0.629458 -0.0237115 -0.306386 -0.623471 -0.0307905 -0.258421 -0.576966 0.0862698 -0.215111 
-0.761698 -0.1081 -0.335881 -0.616091 0.0884923 -0.254898 -0.859033 -0.12891 -0.326754 
-0.88465 0.0147389 -0.353802 -0.595746 -0.139039 -0.240293 -0.615485 -0.0962278 -0.251676 
-0.629493 0.0337835 -0.339006 -0.510087 -0.00752589 -0.232784 -0.557063 -0.0252315 -0.238551 
-0.587237 -0.0643618 -0.25034 -0.619583 -0.0680491 -0.265153 -0.712749 -0.127247 -0.300485 
-0.642624 0.0468035 -0.255982 -0.735977 -0.0539532 -0.317634 -0.793035 -0.0878927 -0.340158 
-0.750235 0.128789 -0.354351 -0.542759 0.00131993 -0.22672 -0.842462 -0.0146975 -0.481084 
-0.85881 -0.155732 -0.470055 -0.588404 -0.0418631 -0.24395 -0.561714 -0.053961 -0.235376 
-0.523012 -0.0363988 -0.173793 -0.53093 0.00620825 -0.223208 -0.721216 -0.0649113 -0.37903 
-0.612919 -0.0187615 -0.209359 -0.647854 -0.00920127 -0.302261 -0.535249 -0.0807766 -0.228604 
-0.721419 0.0669094 -0.304532 -0.753793 0.101591 -0.307706 -0.691721 0.0963723 -0.309955 
-0.802975 -0.146627 -0.133901 -0.793287 0.172864 -0.304472 -0.588775 -0.0097509 -0.271603 
-0.704826 0.154638 -0.152308 -0.767512 -0.0543058 -0.331019 -0.754475 -0.0212387 -0.31648 
-0.60347 0.0527613 -0.227599 -0.681996 0.111895 -0.312922 -0.925457 0.000283645 -0.837233 
-0.805838 0.0231037 -0.856483 -0.737493 -0.0805765 -0.304252 -0.947523 0.0319526 -0.402077 
-0.558885 -0.000131876 -0.237047 -0.639219 -0.0430424 -0.233607 -0.588192 0.071025 -0.246312 
-1.09253 -0.275826 -0.367537 -0.654884 0.055012 -0.274123 -0.717098 -0.0999886 -0.312979 
-0.709573 -0.0593318 -0.280522 -0.754682 -0.028085 -0.30973 -0.693394 -0.118833 -0.283366 
-0.88823 0.107322 -0.496597 -0.726863 0.215376 -0.330304 -0.689297 -0.0190259 -0.363079 
-0.494627 0.0602606 -0.213272 -0.843633 -0.223266 -0.706667 -0.719834 -0.0531875 -0.339436 
-0.696931 -0.180148 -0.0568322 -0.836795 0.326922 -0.32207 -0.874535 -0.0669522 -0.289611 
-0.576189 -0.101954 -0.260222 -0.491218 0.0554447 -0.200953 -0.704511 -0.0696942 -0.142973 
-0.863763 0.134388 -0.162186 -0.7543 -0.11178 -0.736988 -0.692628 0.0521041 -0.655445 
-0.743708 0.172859 -0.247742 -0.556033 -0.129186 -0.233338 -0.583314 -0.113023 -0.243578 
-0.651465 0.0242857 -0.270308 -0.585227 0.139889 -0.190425 -0.720212 0.289403 -0.222517 