# vtk DataFile Version 4.0
Generated by LIGGGHTS
ASCII
DATASET POLYDATA
POINTS 808 float
-0.207916 -0.00343889 -0.185774 -0.2088 -0.00449812 -0.192931 -0.210796 0.013414 -0.190263 
-0.211032 0.030555 -0.190219 -0.216143 -0.0975207 -0.141501 -0.229152 0.0822412 -0.168588 
-0.218222 -0.0412651 -0.190019 -0.20459 0.0171292 -0.190029 -0.213244 0.0262797 -0.19316 
-0.220261 0.0275178 -0.194775 -0.494741 -0.033094 -0.400115 -0.203718 0.00185429 -0.1882 
-0.204076 -0.011923 -0.19144 -0.20276 -0.0173758 -0.190307 -0.485165 0.0293472 -0.397192 
-0.456347 -0.00491374 -0.392025 -0.461214 -0.0014039 -0.392242 -0.448592 0.0021174 -0.391162 
-0.480515 0.0277705 -0.392281 -0.484761 -0.0141388 -0.388047 -0.463854 -0.0200308 -0.388722 
-0.449636 -0.00729117 -0.386043 -0.469758 -0.00420171 -0.381752 -0.474422 0.00425206 -0.386333 
-0.460112 -0.00323639 -0.379201 -0.461256 -0.000182958 -0.379257 -0.404938 0.00535074 -0.378419 
-0.449791 -0.0215328 -0.3749 -0.440811 -0.01432 -0.37386 -0.452962 -0.000636947 -0.375237 
-0.474516 0.00932263 -0.374815 -0.461513 0.0103834 -0.37571 -0.445167 0.00168305 -0.372862 
-0.467949 0.00592292 -0.371537 -0.424097 -0.00658122 -0.369609 -0.483189 -0.0367908 -0.365998 
-0.452671 -0.0292528 -0.354163 -0.44258 -0.00783028 -0.354569 -0.451639 -0.00391421 -0.351713 
-0.454079 0.00408899 -0.353788 -0.445964 -0.00320673 -0.348464 -0.4416 -0.0105513 -0.343968 
-0.417856 0.0300528 -0.346412 -0.434089 -0.0162904 -0.34356 -0.434932 0.0329349 -0.342043 
-0.442032 -0.0225367 -0.339785 -0.416706 0.0155015 -0.338796 -0.434886 0.0321114 -0.337265 
-0.432555 0.000661701 -0.336609 -0.423244 0.0249276 -0.334031 -0.437259 -0.00967327 -0.331245 
-0.422744 -0.0104561 -0.329002 -0.431004 -0.00430849 -0.329957 -0.439702 -0.0297584 -0.327231 
-0.404546 -0.000206417 -0.32844 -0.417056 0.00455963 -0.325264 -0.412944 0.00690063 -0.325987 
-0.430574 0.02221 -0.327512 -0.424069 -0.0211948 -0.324453 -0.41203 0.0175525 -0.324478 
-0.422802 -0.0176077 -0.31793 -0.420093 0.00455647 -0.320525 -0.39791 0.0128568 -0.319785 
-0.415055 -0.0158661 -0.313474 -0.418781 -0.00371595 -0.315139 -0.414559 0.000646112 -0.313441 
-0.411931 0.00637446 -0.316479 -0.419178 0.0080261 -0.316242 -0.418363 0.0111757 -0.313645 
-0.432192 -0.0138236 -0.313616 -0.401489 0.00758136 -0.312521 -0.410257 0.0107357 -0.309949 
-0.415474 -0.00390159 -0.307245 -0.405463 0.00357293 -0.308846 -0.406942 -0.0108537 -0.303167 
-0.406 -0.00384881 -0.305282 -0.401257 0.00185716 -0.304665 -0.403481 -0.0154605 -0.300811 
-0.4012 0.00432953 -0.300313 -0.405037 0.00906692 -0.302416 -0.395984 -0.00788443 -0.295641 
-0.390003 -0.0102053 -0.296539 -0.388099 -0.00527107 -0.294254 -0.401316 0.0108489 -0.295535 
-0.401032 -0.02191 -0.293048 -0.395204 -0.00839776 -0.291147 -0.396026 0.00975926 -0.292303 
-0.404694 0.0279922 -0.292487 -0.396669 -0.0145775 -0.287616 -0.396151 -0.0100512 -0.287065 
-0.385651 0.00892873 -0.286626 -0.394045 0.0156511 -0.290542 -0.398823 0.0219059 -0.290373 
-0.386492 -0.00229565 -0.284299 -0.386829 0.0123676 -0.284884 -0.388156 0.0152111 -0.283175 
-0.396377 0.0314605 -0.286152 -0.390022 -0.0158001 -0.282626 -0.378036 0.00162075 -0.281826 
-0.371805 0.00448789 -0.281465 -0.376698 -0.00580991 -0.275159 -0.373004 0.0206718 -0.275858 
-0.37001 -0.0131809 -0.271188 -0.375359 -0.00850021 -0.274303 -0.372915 0.00335094 -0.273834 
-0.366614 0.00304387 -0.27065 -0.375798 0.0064391 -0.272863 -0.368857 0.00400393 -0.272962 
-0.366925 -0.0141098 -0.267286 -0.366264 -0.00898023 -0.269489 -0.372324 0.0158849 -0.270707 
-0.373235 0.0233346 -0.270055 -0.361887 -0.0153493 -0.263674 -0.364279 -0.0124517 -0.265788 
-0.358368 -0.012907 -0.263122 -0.363276 -0.00678323 -0.26535 -0.366033 0.0112961 -0.266448 
-0.354421 -0.0132005 -0.256807 -0.355132 -0.00902741 -0.257368 -0.351636 -0.00567638 -0.258037 
-0.346191 -0.0047137 -0.257175 -0.35422 0.0012798 -0.258867 -0.350339 0.00630922 -0.256811 
-0.357782 -0.0390813 -0.251177 -0.352797 -0.0298082 -0.251933 -0.352025 -0.0245047 -0.252555 
-0.348385 -0.0229138 -0.25292 -0.346917 -0.0168235 -0.253916 -0.347423 -0.0127618 -0.253138 
-0.346245 0.000142431 -0.252864 -0.341125 0.000109172 -0.251599 -0.343324 0.00927682 -0.252542 
-0.343228 0.0127398 -0.252377 -0.346747 0.0162303 -0.253975 -0.347678 0.0265053 -0.251759 
-0.348884 0.0311196 -0.251229 -0.344594 -0.0174723 -0.250608 -0.341844 -0.0144191 -0.25007 
-0.338864 -0.0156649 -0.248344 -0.343212 -0.0106171 -0.250443 -0.341003 0.00728628 -0.24981 
-0.339403 0.0143635 -0.248625 -0.342197 0.0203215 -0.25034 -0.339648 0.0184636 -0.249569 
-0.337037 0.0185469 -0.247126 -0.33027 -0.0126327 -0.24468 -0.326427 -0.00823246 -0.243296 
-0.326196 -0.00305443 -0.243528 -0.322947 -0.00198757 -0.242184 -0.32654 0.00256909 -0.242717 
-0.328503 0.00634584 -0.244436 -0.323439 0.0050329 -0.242147 -0.331976 0.0101708 -0.244752 
-0.326979 0.00886368 -0.243556 -0.329526 0.0135621 -0.244347 -0.323278 -0.0274331 -0.238569 
-0.325793 -0.0185503 -0.241562 -0.320043 -0.0183676 -0.239275 -0.321558 -0.0154969 -0.240443 
-0.319198 -0.0138315 -0.239626 -0.324961 -0.0116485 -0.241344 -0.319845 -0.00985177 -0.239353 
-0.323874 -0.00584874 -0.241244 -0.320175 -0.00329536 -0.240978 -0.313663 -0.00345287 -0.238276 
-0.315467 -0.000314122 -0.239138 -0.320431 0.000797879 -0.240127 -0.316852 0.00241669 -0.239599 
-0.322239 0.0067818 -0.239865 -0.32342 0.00900577 -0.241959 -0.319019 0.00835908 -0.238875 
-0.316041 0.00807498 -0.238887 -0.328013 0.0202201 -0.241176 -0.324377 -0.0326175 -0.237239 
-0.321345 -0.0243982 -0.238638 -0.314076 -0.0152592 -0.237171 -0.315487 -0.0114972 -0.237307 
-0.308134 -0.0112945 -0.235355 -0.318898 -0.0061188 -0.236178 -0.311484 -0.00813754 -0.236047 
-0.311657 -0.00327344 -0.236012 -0.312222 -0.000856194 -0.237696 -0.308342 0.000275561 -0.236147 
-0.31378 0.00281561 -0.23712 -0.313015 0.0068286 -0.237656 -0.309883 0.00617092 -0.235187 
-0.313292 0.0105509 -0.236238 -0.315259 0.0150819 -0.236781 -0.297782 -0.00773096 -0.231432 
-0.302452 -0.000685379 -0.232563 -0.298448 0.000931296 -0.231935 -0.304075 0.00477902 -0.232981 
-0.301528 0.00850865 -0.232753 -0.303774 0.0105348 -0.233574 -0.307909 0.0106833 -0.234226 
-0.303999 0.013541 -0.233467 -0.305727 0.0212276 -0.232693 -0.304123 -0.0202242 -0.232216 
-0.296981 -0.0207046 -0.228286 -0.298475 -0.0187762 -0.230228 -0.299397 -0.0157944 -0.231232 
-0.298807 -0.0119229 -0.230323 -0.297561 -0.00694339 -0.228533 -0.291167 -0.00850117 -0.228569 
-0.300131 -0.00401459 -0.229643 -0.295381 -0.00501022 -0.230492 -0.298821 0.00644361 -0.230654 
-0.297049 0.0105791 -0.230733 -0.293835 0.00922077 -0.229464 -0.301619 0.016835 -0.230735 
-0.294022 0.0162702 -0.228775 -0.300344 0.0214981 -0.229303 -0.304434 -0.040626 -0.22507 
-0.284373 -0.0184884 -0.224464 -0.296059 -0.0149459 -0.227329 -0.287789 -0.016129 -0.226318 
-0.284151 -0.00936133 -0.224436 -0.286191 -0.0045913 -0.225566 -0.281301 -0.00582652 -0.224546 
-0.315108 -0.00188999 -0.226674 -0.290228 -0.00224501 -0.22735 -0.294767 0.0218709 -0.226904 
-0.284139 -0.0143389 -0.223891 -0.276166 -0.006976 -0.22234 -0.272173 -0.00413959 -0.220758 
-0.276633 -0.000256259 -0.221678 -0.279135 0.00474045 -0.222471 -0.276585 0.00779734 -0.221547 
-0.279378 0.0142835 -0.221872 -0.277391 0.0105593 -0.222502 -0.275125 0.0146206 -0.221087 
-0.278148 0.0182481 -0.221582 -0.281406 0.0258056 -0.221812 -0.284431 0.0344956 -0.22039 
-0.275682 -0.019886 -0.220577 -0.26795 -0.0133293 -0.217192 -0.271741 -0.0083001 -0.219335 
-0.269056 -0.00335055 -0.218389 -0.26894 0.00409163 -0.219318 -0.278485 0.022719 -0.220034 
-0.274408 0.0234044 -0.21934 -0.284246 0.028459 -0.219922 -0.286921 0.0413453 -0.218808 
-0.261979 -0.0179729 -0.21523 -0.264093 -0.0141857 -0.216566 -0.259121 -0.0173963 -0.214091 
-0.255905 -0.00110348 -0.214025 -0.260468 0.00857611 -0.21444 -0.255996 0.0114443 -0.213526 
-0.259868 0.024198 -0.213219 -0.254819 -0.0113259 -0.213005 -0.249264 -0.0137582 -0.210295 
-0.255144 -0.00747892 -0.213425 -0.253888 -0.00375649 -0.213062 -0.25112 -0.00301346 -0.211933 
-0.246693 -0.00630053 -0.209909 -0.250367 0.00339793 -0.211499 -0.257467 0.00387057 -0.213403 
-0.253206 0.0102236 -0.212357 -0.251313 0.0152903 -0.210989 -0.252581 0.0189461 -0.210972 
-0.256518 0.0214837 -0.21114 -0.253033 0.02343 -0.210493 -0.273764 0.0449415 -0.211974 
-0.265707 -0.0370728 -0.206475 -0.247377 -0.0175366 -0.208935 -0.244405 -0.00954425 -0.207685 
-0.242219 -0.00324298 -0.208179 -0.247139 0.00258921 -0.209072 -0.243921 0.000144107 -0.208838 
-0.243023 0.00398069 -0.208374 -0.252949 0.0100877 -0.208307 -0.262258 0.0138476 -0.208923 
-0.246773 0.0123885 -0.207655 -0.248058 0.0156471 -0.209575 -0.247872 0.0192576 -0.207869 
-0.252678 0.0309085 -0.208457 -0.246874 -0.0290835 -0.205419 -0.241592 -0.0286011 -0.204192 
-0.240509 -0.00651782 -0.206161 -0.234985 -0.000135042 -0.205123 -0.233966 0.00543355 -0.204517 
-0.239851 0.0143724 -0.205289 -0.24337 0.0217901 -0.205624 -0.24401 0.0294241 -0.205239 
-0.22525 -0.00564755 -0.200811 -0.226102 -0.00112956 -0.201357 -0.2235 0.00044022 -0.198792 
-0.236904 0.0117714 -0.2023 -0.227521 0.0217833 -0.200134 -0.236845 0.0282083 -0.202593 
-0.234181 0.0250394 -0.20119 -0.258049 -0.0597022 -0.198037 -0.233878 -0.0425378 -0.197039 
-0.221319 -0.0252162 -0.196739 -0.221111 -0.0193176 -0.197907 -0.223208 -0.0150918 -0.198094 
-0.239093 0.00375369 -0.195193 -0.23655 0.0158284 -0.201886 -0.221806 0.0141227 -0.198724 
-0.244146 0.0238589 -0.194667 -0.219251 0.0193805 -0.19699 -0.229738 0.0318325 -0.197691 
-0.21128 0.000302532 -0.195028 -0.207767 0.00771859 -0.193503 -0.212682 0.0227092 -0.193817 
-0.201892 -0.0504345 -0.181344 -0.200553 0.0237555 -0.18848 -0.200339 0.0188873 -0.187109 
-0.0628717 0.016328 -0.130626 -0.0733501 -0.0145276 -0.126255 -0.199303 -0.0151366 -0.188465 
-0.0968639 0.0186012 -0.128401 -0.199442 -0.00770705 -0.188881 -0.1954 -0.000956553 -0.188312 
-0.196889 0.00338054 -0.188961 -0.0660677 -0.0143895 -0.128713 -0.0475094 -0.00345141 -0.125621 
[...]
POINT_DATA 808
FIELD FieldData 7
id 1 808 int
462 470 540 494 499 477 523 357 502 
446 138 471 387 195 244 176 111 89 
103 159 201 175 66 182 143 270 187 
110 125 216 80 140 86 105 196 268 
203 186 78 90 127 128 257 113 281 
232 135 327 238 227 165 204 228 171 
121 246 265 198 144 234 194 153 161 
224 191 170 202 97 178 347 183 215 
230 141 117 123 372 102 164 277 287 
209 185 199 290 218 206 258 205 211 
259 278 151 129 131 210 223 275 152 
262 260 292 282 314 243 239 271 155 
119 252 299 300 214 302 149 293 342 
189 219 180 220 279 208 337 320 348 
286 295 115 190 301 236 289 309 325 
272 355 212 221 193 256 318 288 184 
311 315 106 251 172 254 207 250 266 
324 323 338 413 312 249 313 317 229 
217 169 225 107 341 284 308 160 197 
310 319 297 365 403 255 379 179 280 
346 235 168 307 333 269 267 242 425 
344 283 240 345 261 370 352 264 350 
405 321 359 253 391 378 305 247 306 
213 322 380 389 332 381 237 406 373 
316 241 285 396 330 294 303 376 226 
331 354 334 384 411 173 392 504 339 
336 393 329 291 402 383 401 356 404 
328 248 335 388 367 326 448 441 371 
296 358 374 273 426 395 377 414 298 
419 362 463 456 386 432 349 394 415 
447 457 438 468 429 369 439 535 437 
409 276 400 481 407 490 385 428 473 
424 410 423 421 398 360 467 452 443 
382 584 442 510 399 496 465 513 475 
618 397 431 703 736 472 719 343 500 
427 694 722 460 430 351 363 408 434 
708 466 375 469 458 390 750 464 418 
484 476 422 433 479 451 686 412 340 
364 478 416 353 440 417 480 525 483 
704 508 518 455 492 505 435 368 450 
453 509 533 541 459 449 568 543 482 
522 515 554 582 444 495 529 558 538 
550 530 537 461 436 501 546 420 507 
566 573 596 526 603 361 553 454 531 
488 445 556 572 493 489 498 497 514 
512 366 563 545 589 561 551 503 491 
528 474 548 574 578 630 520 581 487 
511 559 527 611 594 576 619 588 542 
506 517 591 549 524 565 519 547 532 
599 604 521 534 615 516 486 567 577 
602 627 485 555 552 564 562 557 609 
598 624 614 656 650 587 570 595 654 
580 617 658 644 583 655 635 640 610 
616 544 625 632 575 586 633 620 629 
621 536 590 560 647 608 676 711 682 
628 634 661 636 645 571 539 585 607 
631 673 600 592 613 657 721 643 606 
597 593 641 653 685 648 623 637 638 
649 660 612 720 569 651 626 688 671 
734 692 667 646 622 639 713 683 670 
662 665 684 679 642 669 681 717 652 
698 601 742 747 678 664 674 680 666 
775 675 668 697 715 701 702 677 737 
699 696 263 942 938 939 663 936 733 
940 943 937 941 709 935 732 579 946 
723 944 934 756 727 691 712 687 707 
728 716 945 762 695 748 738 693 672 
724 739 776 764 766 771 753 746 763 
689 725 759 752 730 761 700 781 741 
770 755 773 729 774 788 744 706 772 
714 790 796 690 743 710 749 718 760 
758 786 726 765 782 799 780 792 787 
751 768 784 795 783 705 659 797 789 
757 735 754 791 767 731 777 802 794 
745 785 778 740 769 779 801 803 798 
793 800 810 815 808 814 809 811 816 
805 804 813 812 807 605 821 825 806 
827 828 824 826 823 829 817 819 822 
818 830 836 820 840 834 841 839 835 
838 842 831 833 837 832 853 852 851 
846 844 849 855 847 854 845 850 843 
848 864 861 860 856 858 867 857 863 
868 865 866 859 874 862 881 877 870 
880 878 879 871 873 875 876 872 869 
894 892 887 882 885 883 889 884 888 
891 890 893 886 905 900 897 898 902 
896 906 907 904 903 901 899 895 911 
914 917 919 915 916 913 908 920 909 
910 918 924 912 933 927 931 925 922 
930 923 921 926 929 928 932 
type 1 808 int
1 1 1 1 1 1 1 1 1 
1 1 1 1 1 1 1 1 1 
1 1 1 1 1 1 1 1 1 
1 1 1 1 1 1 1 1 1 
1 1 1 1 1 1 1 1 1 
1 1 1 1 1 1 1 1 1 
1 1 1 1 1 1 1 1 1 
1 1 1 1 1 1 1 1 1 
1 1 1 1 1 1 1 1 1 
1 1 1 1 1 1 1 1 1 
1 1 1 1 1 1 1 1 1 
1 1 1 1 1 1 1 1 1 
1 1 1 1 1 1 1 1 1 
1 1 1 1 1 1 1 1 1 
1 1 1 1 1 1 1 1 1 
1 1 1 1 1 1 1 1 1 
1 1 1 1 1 1 1 1 1 
1 1 1 1 1 1 1 1 1 
1 1 1 1 1 1 1 1 1 
1 1 1 1 1 1 1 1 1 
1 1 1 1 1 1 1 1 1 
1 1 1 1 1 1 1 1 1 
1 1 1 1 1 1 1 1 1 
1 1 1 1 1 1 1 1 1 
1 1 1 1 1 1 1 1 1 
1 1 1 1 1 1 1 1 1 
1 1 1 1 1 1 1 1 1 
1 1 1 1 1 1 1 1 1 
1 1 1 1 1 1 1 1 1 
1 1 1 1 1 1 1 1 1 
1 1 1 1 1 1 1 1 1 
1 1 1 1 1 1 1 1 1 
1 1 1 1 1 1 1 1 1 
1 1 1 1 1 1 1 1 1 
1 1 1 1 1 1 1 1 1 
1 1 1 1 1 1 1 1 1 
1 1 1 1 1 1 1 1 1 
1 1 1 1 1 1 1 1 1 
1 1 1 1 1 1 1 1 1 
1 1 1 1 1 1 1 1 1 
1 1 1 1 1 1 1 1 1 
1 1 1 1 1 1 1 1 1 
1 1 1 1 1 1 1 1 1 
1 1 1 1 1 1 1 1 1 
1 1 1 1 1 1 1 1 1 
1 1 1 1 1 1 1 1 1 
1 1 1 1 1 1 1 1 1 
1 1 1 1 1 1 1 1 1 
1 1 1 1 1 1 1 1 1 
1 1 1 1 1 1 1 1 1 
1 1 1 1 1 1 1 1 1 
1 1 1 1 1 1 1 1 1 
1 1 1 1 1 1 1 1 1 
1 1 1 1 1 1 1 1 1 
1 1 1 1 1 1 1 1 1 
1 1 1 1 1 1 1 1 1 
1 1 1 1 1 1 1 1 1 
1 1 1 1 1 1 1 1 1 
1 1 1 1 1 1 1 1 1 
1 1 1 1 1 1 1 1 1 
1 1 1 1 1 1 1 1 1 
1 1 1 1 1 1 1 1 1 
1 1 1 1 1 1 1 1 1 
1 1 1 1 1 1 1 1 1 
1 1 1 1 1 1 1 1 1 
1 1 1 1 1 1 1 1 1 
1 1 1 1 1 1 1 1 1 
1 1 1 1 1 1 1 1 1 
1 1 1 1 1 1 1 1 1 
1 1 1 1 1 1 1 1 1 
1 1 1 1 1 1 1 1 1 
1 1 1 1 1 1 1 1 1 
1 1 1 1 1 1 1 1 1 
1 1 1 1 1 1 1 1 1 
1 1 1 1 1 1 1 1 1 
1 1 1 1 1 1 1 1 1 
1 1 1 1 1 1 1 1 1 
1 1 1 1 1 1 1 1 1 
1 1 1 1 1 1 1 1 1 
1 1 1 1 1 1 1 1 1 
1 1 1 1 1 1 1 1 1 
1 1 1 1 1 1 1 1 1 
1 1 1 1 1 1 1 1 1 
1 1 1 1 1 1 1 1 1 
1 1 1 1 1 1 1 1 1 
1 1 1 1 1 1 1 1 1 
1 1 1 1 1 1 1 1 1 
1 1 1 1 1 1 1 1 1 
1 1 1 1 1 1 1 1 1 
1 1 1 1 1 1 1 
i 3 808 int
0 0 0 0 0 0 0 0 0 
0 0 0 0 0 0 0 0 0 
0 0 0 0 0 0 0 0 0 
0 0 0 0 0 0 0 0 0 
0 0 0 0 0 0 0 0 0 
0 0 0 0 0 0 0 0 0 
0 0 0 0 0 0 0 0 0 
0 0 0 0 0 0 0 0 0 
0 0 0 0 0 0 0 0 0 
0 0 0 0 0 0 0 0 0 
0 0 0 0 0 0 0 0 0 
0 0 0 0 0 0 0 0 0 
0 0 0 0 0 0 0 0 0 
0 0 0 0 0 0 0 0 0 
0 0 0 0 0 0 0 0 0 
0 0 0 0 0 0 0 0 0 
0 0 0 0 0 0 0 0 0 
0 0 0 0 0 0 0 0 0 
0 0 0 0 0 0 0 0 0 
0 0 0 0 0 0 0 0 0 
0 0 0 0 0 0 0 0 0 
0 0 0 0 0 0 0 0 0 
0 0 0 0 0 0 0 0 0 
0 0 0 0 0 0 0 0 0 
0 0 0 0 0 0 0 0 0 
0 0 0 0 0 0 0 0 0 
0 0 0 0 0 0 0 0 0 
0 0 0 0 0 0 0 0 0 
0 0 0 0 0 0 0 0 0 
0 0 0 0 0 0 0 0 0 
0 0 0 0 0 0 0 0 0 
0 0 0 0 0 0 0 0 0 
0 0 0 0 0 0 0 0 0 
0 0 0 0 0 0 0 0 0 
0 0 0 0 0 0 0 0 0 
0 0 0 0 0 0 0 0 0 
0 0 0 0 0 0 0 0 0 
0 0 0 0 0 0 0 0 0 
0 0 0 0 0 0 0 0 0 
0 0 0 0 0 0 0 0 0 
0 0 0 0 0 0 0 0 0 
0 0 0 0 0 0 0 0 0 
0 0 0 0 0 0 0 0 0 
0 0 0 0 0 0 0 0 0 
0 0 0 0 0 0 0 0 0 
0 0 0 0 0 0 0 0 0 
0 0 0 0 0 0 0 0 0 
0 0 0 0 0 0 0 0 0 
0 0 0 0 0 0 0 0 0 
0 0 0 0 0 0 0 0 0 
0 0 0 0 0 0 0 0 0 
0 0 0 0 0 0 0 0 0 
0 0 0 0 0 0 0 0 0 
0 0 0 0 0 0 0 0 0 
0 0 0 0 0 0 0 0 0 
0 0 0 0 0 0 0 0 0 
0 0 0 0 0 0 0 0 0 
0 0 0 0 0 0 0 0 0 
0 0 0 0 0 0 0 0 0 
0 0 0 0 0 0 0 0 0 
0 0 0 0 0 0 0 0 0 
0 0 0 0 0 0 0 0 0 
0 0 0 0 0 0 0 0 0 
0 0 0 0 0 0 0 0 0 
0 0 0 0 0 0 0 0 0 
0 0 0 0 0 0 0 0 0 
0 0 0 0 0 0 0 0 0 
0 0 0 0 0 0 0 0 0 
0 0 0 0 0 0 0 0 0 
0 0 0 0 0 0 0 0 0 
0 0 0 0 0 0 0 0 0 
0 0 0 0 0 0 0 0 0 
0 0 0 0 0 0 0 0 0 
0 0 0 0 0 0 0 0 0 
0 0 0 0 0 0 0 0 0 
0 0 0 0 0 0 0 0 0 
0 0 0 0 0 0 0 0 0 
0 0 0 0 0 0 0 0 0 
0 0 0 0 0 0 0 0 0 
0 0 0 0 0 0 0 0 0 
0 0 0 0 0 0 0 0 0 
0 0 0 0 0 0 0 0 0 
0 0 0 0 0 0 0 0 0 
0 0 0 0 0 0 0 0 0 
0 0 0 0 0 0 0 0 0 
0 0 0 0 0 0 0 0 0 
0 0 0 0 0 0 0 0 0 
0 0 0 0 0 0 0 0 0 
0 0 0 0 0 0 0 0 0 
0 0 0 0 0 0 0 0 0 
0 0 0 0 0 0 0 0 0 
0 0 0 0 0 0 0 0 0 
0 0 0 0 0 0 0 0 0 
0 0 0 0 0 0 0 0 0 
0 0 0 0 0 0 0 0 0 
0 0 0 0 0 0 0 0 0 
0 0 0 0 0 0 0 0 0 
0 0 0 0 0 0 0 0 0 
0 0 0 0 0 0 0 0 0 
0 0 0 0 0 0 0 0 0 
0 0 0 0 0 0 0 0 0 
0 0 0 0 0 0 0 0 0 
0 0 0 0 0 0 0 0 0 
0 0 0 0 0 0 0 0 0 
0 0 0 0 0 0 0 0 0 
0 0 0 0 0 0 0 0 0 
0 0 0 0 0 0 0 0 0 
0 0 0 0 0 0 0 0 0 
0 0 0 0 0 0 0 0 0 
0 0 0 0 0 0 0 0 0 
0 0 0 0 0 0 0 0 0 
0 0 0 0 0 0 0 0 0 
0 0 0 0 0 0 0 0 0 
0 0 0 0 0 0 0 0 0 
0 0 0 0 0 0 0 0 0 
0 0 0 0 0 0 0 0 0 
0 0 0 0 0 0 0 0 0 
0 0 0 0 0 0 0 0 0 
0 0 0 0 0 0 0 0 0 
0 0 0 0 0 0 0 0 0 
0 0 0 0 0 0 0 0 0 
0 0 0 0 0 0 0 0 0 
0 0 0 0 0 0 0 0 0 
0 0 0 0 0 0 0 0 0 
0 0 0 0 0 0 0 0 0 
0 0 0 0 0 0 0 0 0 
0 0 0 0 0 0 0 0 0 
0 0 0 0 0 0 0 0 0 
0 0 0 0 0 0 0 0 0 
0 0 0 0 0 0 0 0 0 
0 0 0 0 0 0 0 0 0 
0 0 0 0 0 0 0 0 0 
0 0 0 0 0 0 0 0 0 
0 0 0 0 0 0 0 0 0 
0 0 0 0 0 0 0 0 0 
0 0 0 0 0 0 0 0 0 
0 0 0 0 0 0 0 0 0 
0 0 0 0 0 0 0 0 0 
0 0 0 0 0 0 0 0 0 
0 0 0 0 0 0 0 0 0 
0 0 0 0 0 0 0 0 0 
0 0 0 0 0 0 0 0 0 
0 0 0 0 0 0 0 0 0 
0 0 0 0 0 0 0 0 0 
0 0 0 0 0 0 0 0 0 
0 0 0 0 0 0 0 0 0 
0 0 0 0 0 0 0 0 0 
0 0 0 0 0 0 0 0 0 
0 0 0 0 0 0 0 0 0 
0 0 0 0 0 0 0 0 0 
0 0 0 0 0 0 0 0 0 
0 0 0 0 0 0 0 0 0 
0 0 0 0 0 0 0 0 0 
0 0 0 0 0 0 0 0 0 
0 0 0 0 0 0 0 0 0 
0 0 0 0 0 0 0 0 0 
0 0 0 0 0 0 0 0 0 
0 0 0 0 0 0 0 0 0 
0 0 0 0 0 0 0 0 0 
0 0 0 0 0 0 0 0 0 
0 0 0 0 0 0 0 0 0 
0 0 0 0 0 0 0 0 0 
0 0 0 0 0 0 0 0 0 
0 0 0 0 0 0 0 0 0 
0 0 0 0 0 0 0 0 0 
0 0 0 0 0 0 0 0 0 
0 0 0 0 0 0 0 0 0 
0 0 0 0 0 0 0 0 0 
0 0 0 0 0 0 0 0 0 
0 0 0 0 0 0 0 0 0 
0 0 0 0 0 0 0 0 0 
0 0 0 0 0 0 0 0 0 
0 0 0 0 0 0 0 0 0 
0 0 0 0 0 0 0 0 0 
0 0 0 0 0 0 0 0 0 
0 0 0 0 0 0 0 0 0 
0 0 0 0 0 0 0 0 0 
0 0 0 0 0 0 0 0 0 
0 0 0 0 0 0 0 0 0 
0 0 0 0 0 0 0 0 0 
0 0 0 0 0 0 0 0 0 
0 0 0 0 0 0 0 0 0 
0 0 0 0 0 0 0 0 0 
0 0 0 0 0 0 0 0 0 
0 0 0 0 0 0 0 0 0 
0 0 0 0 0 0 0 0 0 
0 0 0 0 0 0 0 0 0 
0 0 0 0 0 0 0 0 0 
0 0 0 0 0 0 0 0 0 
0 0 0 0 0 0 0 0 0 
0 0 0 0 0 0 0 0 0 
0 0 0 0 0 0 0 0 0 
0 0 0 0 0 0 0 0 0 
0 0 0 0 0 0 0 0 0 
0 0 0 0 0 0 0 0 0 
0 0 0 0 0 0 0 0 0 
0 0 0 0 0 0 0 0 0 
0 0 0 0 0 0 0 0 0 
0 0 0 0 0 0 0 0 0 
0 0 0 0 0 0 0 0 0 
0 0 0 0 0 0 0 0 0 
0 0 0 0 0 0 0 0 0 
0 0 0 0 0 0 0 0 0 
0 0 0 0 0 0 0 0 0 
0 0 0 0 0 0 0 0 0 
0 0 0 0 0 0 0 0 0 
0 0 0 0 0 0 0 0 0 
0 0 0 0 0 0 0 0 0 
0 0 0 0 0 0 0 0 0 
0 0 0 0 0 0 0 0 0 
0 0 0 0 0 0 0 0 0 
0 0 0 0 0 0 0 0 0 
0 0 0 0 0 0 0 0 0 
0 0 0 0 0 0 0 0 0 
0 0 0 0 0 0 0 0 0 
0 0 0 0 0 0 0 0 0 
0 0 0 0 0 0 0 0 0 
0 0 0 0 0 0 0 0 0 
0 0 0 0 0 0 0 0 0 
0 0 0 0 0 0 0 0 0 
0 0 0 0 0 0 0 0 0 
0 0 0 0 0 0 0 0 0 
0 0 0 0 0 0 0 0 0 
0 0 0 0 0 0 0 0 0 
0 0 0 0 0 0 0 0 0 
0 0 0 0 0 0 0 0 0 
0 0 0 0 0 0 0 0 0 
0 0 0 0 0 0 0 0 0 
0 0 0 0 0 0 0 0 0 
0 0 0 0 0 0 0 0 0 
0 0 0 0 0 0 0 0 0 
0 0 0 0 0 0 0 0 0 
0 0 0 0 0 0 0 0 0 
0 0 0 0 0 0 0 0 0 
0 0 0 0 0 0 0 0 0 
0 0 0 0 0 0 0 0 0 
0 0 0 0 0 0 0 0 0 
0 0 0 0 0 0 0 0 0 
0 0 0 0 0 0 0 0 0 
0 0 0 0 0 0 0 0 0 
0 0 0 0 0 0 0 0 0 
0 0 0 0 0 0 0 0 0 
0 0 0 0 0 0 0 0 0 
0 0 0 0 0 0 0 0 0 
0 0 0 0 0 0 0 0 0 
0 0 0 0 0 0 0 0 0 
0 0 0 0 0 0 0 0 0 
0 0 0 0 0 0 0 0 0 
0 0 0 0 0 0 0 0 0 
0 0 0 0 0 0 0 0 0 
0 0 0 0 0 0 0 0 0 
0 0 0 0 0 0 0 0 0 
0 0 0 0 0 0 0 0 0 
0 0 0 0 0 0 0 0 0 
0 0 0 0 0 0 0 0 0 
0 0 0 0 0 0 0 0 0 
0 0 0 0 0 0 0 0 0 
0 0 0 0 0 0 0 0 0 
0 0 0 0 0 0 0 0 0 
0 0 0 0 0 0 0 0 0 
0 0 0 0 0 0 0 0 0 
0 0 0 0 0 0 0 0 0 
0 0 0 0 0 0 0 0 0 
0 0 0 0 0 0 0 0 0 
0 0 0 0 0 0 0 0 0 
0 0 0 0 0 0 0 0 0 
0 0 0 0 0 0 0 0 0 
0 0 0 0 0 0 0 0 0 
0 0 0 0 0 0 0 0 0 
0 0 0 
v 3 808 double
-0.864018 -0.136848 -0.671366 -0.910415 -0.0458348 -0.384647 -1.01317 0.193842 -0.776607 
-0.864976 0.135344 -0.335199 -0.915463 0.187128 -0.4423 -0.826726 -0.234115 -0.4976 
-1.01897 -0.0701607 -0.377725 -0.731518 -0.0645799 -0.313749 -0.794246 0.0492963 -0.369119 
-0.979379 8.11095e-05 -0.401453 -1.11094 -0.0901156 -1.77269 -0.887999 0.169813 -0.598073 
-0.798668 -0.107003 -0.319185 -0.953808 0.186456 -0.478232 -1.14955 0.0820775 -1.74595 
-0.956358 0.130036 -1.78564 -0.974827 0.0231995 -1.75551 -0.970178 0.112088 -1.81108 
-1.06646 0.310137 -1.79874 -1.22839 0.138285 -1.79437 -1.23618 -0.320835 -1.9411 
-0.9273 0.0533049 -1.73086 -1.1671 -0.102321 -1.73843 -1.26808 -0.0987358 -1.96239 
-1.07416 -0.0807929 -1.68126 -1.11399 -0.0598414 -1.73719 -0.633205 0.0666279 -1.74645 
-0.937038 0.00446306 -1.66271 -0.893674 0.0247865 -1.65738 -1.06902 -0.280969 -1.75574 
-1.2022 -0.0484226 -1.67478 -1.06873 -0.121205 -1.71972 -0.95762 0.137807 -1.65942 
-1.19621 -0.10933 -1.64783 -0.742355 -0.0334457 -1.7372 -1.27685 0.0526286 -1.6914 
-1.12302 -0.0308751 -1.57294 -1.07286 0.014188 -1.55908 -1.17602 -0.00161866 -1.54954 
-1.13972 0.0204263 -1.52015 -1.13557 -0.0484089 -1.50198 -1.12182 -0.024323 -1.49493 
-0.862739 0.0954789 -1.54712 -1.07652 -0.198395 -1.48951 -1.02436 0.179403 -1.46667 
-1.13227 0.0648615 -1.4858 -1.01581 0.0703343 -1.51785 -1.04299 -0.00891421 -1.46523 
-1.27327 -0.180764 -1.54718 -0.957861 0.0850598 -1.41352 -1.24203 0.14395 -1.46595 
-0.932546 0.0172999 -1.36003 -1.15946 0.0521943 -1.40991 -1.17842 -0.0334707 -1.37845 
-0.846733 -0.170585 -1.42079 -1.01061 0.0312319 -1.34853 -0.961267 -0.052721 -1.40684 
-1.04263 -0.0288047 -1.32868 -1.07131 -0.0200227 -1.35488 -0.911098 0.0507405 -1.32984 
-1.08722 0.01333 -1.29699 -1.08139 -0.0307907 -1.32187 -0.844083 -0.0139612 -1.34211 
-1.08441 -0.0152823 -1.26784 -1.13691 0.0621687 -1.29696 -1.08173 -0.00681234 -1.23985 
-1.02564 0.0286047 -1.30034 -1.01234 -0.0407536 -1.25924 -1.10239 0.00458917 -1.26272 
-1.35934 0.283724 -1.3678 -1.01304 -0.197298 -1.38856 -1.05704 -0.0221346 -1.24189 
-1.16829 0.255555 -1.25965 -1.11338 0.00902931 -1.31617 -1.11276 -0.0174279 -1.19875 
-1.08033 0.0265767 -1.20107 -1.06996 -0.0497087 -1.18767 -1.13578 -0.0353817 -1.20461 
-1.0491 -0.061281 -1.14754 -1.16487 -0.0278289 -1.23185 -1.05512 0.139585 -1.13651 
-0.904145 -0.0864301 -1.09821 -0.914312 -0.0358974 -1.08084 -1.12687 -0.00547431 -1.12293 
-1.10472 0.182418 -1.15432 -1.15837 0.0255994 -1.09902 -1.06454 -0.0534303 -1.05403 
-1.2164 -0.134221 -1.18269 -1.20847 0.100333 -1.09783 -1.10167 0.0688633 -0.996744 
-1.03724 -0.0183065 -1.0399 -1.19539 -0.0596812 -1.15128 -1.18598 0.0133406 -1.11964 
-1.07654 0.135325 -1.03017 -1.03812 -0.10567 -1.06138 -1.17791 -0.0979554 -1.00095 
-1.14454 -0.0502975 -1.09714 -1.21534 0.0872638 -1.04296 -0.999721 0.112045 -1.01386 
-0.922339 -0.0354127 -1.09098 -1.10672 -0.0694735 -0.920319 -0.859968 -0.134624 -0.954136 
-0.968492 -0.0669076 -0.867821 -1.10149 -0.0704883 -0.908916 -0.960219 0.050049 -0.876948 
-0.966315 -0.00813597 -0.846844 -1.12307 -0.0114813 -0.853811 -0.954143 0.0332181 -0.877553 
-1.04884 -0.0010876 -0.826223 -0.966921 -0.0215957 -0.837749 -1.14507 -0.146483 -0.930741 
-1.11947 -0.0587727 -0.913184 -1.06989 0.015834 -0.835851 -1.07123 0.0390255 -0.82508 
-0.964282 -0.208926 -0.756199 -1.01641 -0.15718 -0.803229 -1.09262 -0.139258 -0.872964 
-1.09408 0.0509809 -0.710578 -1.10526 0.105764 -0.776357 -0.931525 -0.0507589 -0.67037 
-0.920937 -0.15804 -0.752864 -1.05552 -0.0919895 -0.748939 -1.09174 0.107324 -0.709573 
-1.05424 0.0128972 -0.675664 -1.185 0.181286 -0.752202 -1.22956 0.218808 -0.743346 
-1.13507 0.175002 -0.748296 -1.0399 0.0239732 -0.826321 -1.12077 0.0409039 -0.694119 
-1.07806 0.0159724 -0.639768 -1.0581 -0.260259 -0.641006 -0.998607 -0.103271 -0.636252 
-0.955503 -0.0809711 -0.630322 -0.957441 0.00412971 -0.648693 -0.981793 -0.03774 -0.652921 
-0.933584 0.0654867 -0.619833 -1.11567 0.109859 -0.694328 -1.02462 0.0728468 -0.551578 
-1.09636 -0.00644754 -0.579944 -1.11076 0.0227326 -0.634146 -1.09674 -0.187604 -0.641515 
-0.917667 -0.0825723 -0.578119 -0.903137 -0.0626823 -0.599074 -0.918825 -0.0745457 -0.610525 
-0.927815 -0.0557572 -0.529074 -1.12261 0.112501 -0.533268 -0.937067 0.00432739 -0.424334 
-0.918801 0.0548237 -0.419956 -0.819283 0.0256404 -0.343595 -0.847372 0.101534 -0.402456 
-1.09445 -0.0164594 -0.521357 -0.828915 0.0824696 -0.387352 -1.13785 -0.0769281 -0.568132 
-1.1018 -0.169347 -0.51926 -1.10061 -0.0949063 -0.543817 -0.957283 0.00957379 -0.36766 
-1.20211 0.11334 -0.525064 -0.961365 -0.0318541 -0.370806 -0.964074 -0.0148207 -0.386744 
-0.979776 0.039326 -0.442883 -0.924852 -0.0109526 -0.401184 -0.900118 0.0440475 -0.391388 
-0.947679 0.0108678 -0.399347 -1.01744 0.115075 -0.417137 -0.845853 0.0518998 -0.363438 
-0.882372 0.0380691 -0.36359 -0.88996 0.0470518 -0.389597 -0.903152 0.0786749 -0.35055 
-0.916973 0.084539 -0.322086 -0.988453 0.0186019 -0.430528 -0.980683 0.100013 -0.41895 
-0.905112 -0.0188568 -0.356249 -1.25622 -0.111964 -0.586014 -1.02938 -0.0470983 -0.379543 
-1.07327 0.106253 -0.432923 -1.16223 0.0218913 -0.434454 -1.07837 0.114782 -0.506797 
-1.0866 0.0239538 -0.440947 -1.08277 0.13993 -0.433585 -0.968745 0.0444297 -0.401382 
-0.839198 0.111677 -0.3678 -0.813538 0.0463356 -0.333538 -0.884665 0.0617447 -0.368822 
-0.990518 -0.0151731 -0.296037 -1.01679 0.00889717 -0.395893 -1.022 -0.106118 -0.359471 
-1.14745 -0.0502664 -0.361609 -1.13112 -0.0619884 -0.517952 -0.922605 0.106156 -0.391201 
-0.812994 0.0662473 -0.345009 -0.87041 -0.0897209 -0.372531 -0.946131 0.063824 -0.39477 
-0.948293 0.0711142 -0.399118 -1.04882 0.0185818 -0.441506 -1.05774 -0.0918654 -0.452497 
-1.07416 0.0180331 -0.443616 -1.18445 -0.0356908 -0.501367 -1.21175 0.181819 -0.548972 
-1.0883 0.0224529 -0.360899 -1.06932 -0.017018 -0.465656 -0.984853 -0.0109136 -0.412468 
-1.09905 0.0280301 -0.463166 -1.0166 0.159614 -0.418206 -0.978393 0.0281075 -0.414701 
-0.879643 -0.0456644 -0.417218 -0.871652 0.13351 -0.374932 -0.965059 0.0471365 -0.401066 
-0.942854 0.0631035 -0.39306 -0.978364 -0.0716909 -0.417782 -1.12494 -0.0610947 -0.481626 
-0.997645 -0.173379 -0.450025 -1.1123 -0.0333417 -0.444056 -1.07845 0.0456577 -0.482318 
-1.01872 0.0352924 -0.432008 -1.11062 0.101476 -0.419325 -1.0727 0.0616098 -0.457451 
-1.02222 0.00573099 -0.430734 -0.880756 0.0403158 -0.373313 -0.910085 -0.0118565 -0.383401 
-1.33799 0.0333986 -0.536887 -0.882072 0.0395138 -0.373214 -1.05056 -0.21537 -0.468141 
-1.0326 0.0436769 -0.438608 -0.875755 -0.0365553 -0.368456 -0.939952 -0.0278154 -0.403638 
-0.936301 0.0570502 -0.397452 -0.965235 -0.0335147 -0.400037 -0.964354 -0.0300375 -0.363807 
-0.878918 0.0337022 -0.369452 -0.920887 -0.0198438 -0.381285 -0.848183 -0.0118669 -0.372748 
-0.93455 0.0883729 -0.371473 -1.09588 -0.06301 -0.459442 -1.03563 0.189239 -0.41927 
-1.06254 0.0885427 -0.457359 -0.792227 0.0952235 -0.34723 -0.961417 -0.0473884 -0.405992 
-0.990448 -0.0152409 -0.416643 -0.703916 0.0679366 -0.294583 -1.09505 -0.19969 -0.537383 
-1.20982 -0.244433 -0.534762 -1.23963 -0.115583 -0.52784 -1.17432 -0.196322 -0.557459 
-0.945177 0.0131772 -0.400822 -0.803511 0.0493196 -0.342051 -0.93654 -0.00116114 -0.395081 
-0.687111 -0.10877 -0.284769 -0.925613 0.0287534 -0.388406 -0.908311 0.0352014 -0.378627 
-0.793897 0.260332 -0.289189 -0.927948 0.123237 -0.402648 -0.956172 -0.050615 -0.406439 
-0.98582 0.147086 -0.42072 -0.825487 0.0721648 -0.349624 -0.821859 0.0670575 -0.347935 
-0.877885 0.0339936 -0.375529 -0.857365 0.0888006 -0.360684 -0.932489 0.0196924 -0.369838 
-0.888125 -0.0372657 -0.248664 -0.95328 -0.0130756 -0.397572 -1.06576 0.011065 -0.440865 
-0.88268 0.0281103 -0.367427 -0.888284 0.039384 -0.363083 -1.06807 -0.190864 -0.502816 
-0.965585 0.0586276 -0.27118 -0.945061 -0.0659637 -0.381095 -0.849082 -0.00623461 -0.373876 
-0.89011 0.0577459 -0.376203 -0.801263 0.00890139 -0.320014 -0.835676 -0.032583 -0.361982 
-0.79549 0.0622553 -0.333796 -1.17184 0.130419 -0.0734973 -1.14349 0.0507461 -0.562613 
-0.97966 0.0360244 -0.371662 -0.903154 0.0648991 -0.372746 -0.973644 0.0809982 -0.398939 
-1.15665 0.0460809 -0.473567 -0.980623 -0.163346 -0.35277 -0.867258 -0.0713745 -0.412307 
-0.860867 0.0359124 -0.405619 -0.700332 0.0958285 -0.285382 -0.888286 -0.0703331 -0.372641 
-1.11593 -0.101319 -0.405086 -1.01558 0.00428229 -0.419253 -0.988227 0.137404 -0.320904 
-0.642234 -0.108967 -0.243625 -0.63409 -0.0253568 -0.257341 -0.652191 0.1219 -0.192356 
-0.99892 -0.132295 -0.479192 -0.948431 -0.0745358 -0.402252 -1.0035 0.0412803 -0.407499 
-1.05526 -0.146468 -0.465043 -1.04297 0.111059 -0.513117 -1.00283 0.0303815 -0.409472 
-0.801562 -0.11681 -0.309389 -0.979571 -0.0132618 -0.407624 -0.908064 -0.00663806 -0.395126 
-0.874735 0.0967799 -0.333883 -1.07302 0.0787131 -0.231474 -0.855293 -0.00520591 -0.365716 
-1.24004 0.302219 -0.274646 -0.845227 0.0643466 -0.357828 -1.22207 -0.0680127 -0.521855 
-0.836948 -0.0379734 -0.362235 -0.753694 -0.0315546 -0.318237 -0.843257 0.0142628 -0.353164 
-1.24958 -0.183517 -0.430769 -0.669805 0.073498 -0.268377 -0.767302 0.00268931 -0.281997 
-0.560723 0.13036 -0.221379 -0.889413 -0.00316815 -0.422476 -0.723322 0.132562 -0.316382 
-1.03964 -0.0709282 -0.639119 -0.791204 -0.0191643 -0.325174 -0.748183 -0.0563726 -0.310681 
-0.872845 -0.0333259 -0.362664 -0.76186 0.05108 -0.339827 -0.468822 0.106634 -0.269398 
-0.836491 -0.0397216 -0.362105 -0.734038 -0.0800186 -0.305424 -0.748941 0.0199772 -0.32936 
-0.753798 -0.0679256 -0.303176 -0.726419 -0.00638215 -0.298777 -0.808026 -0.0640155 -0.345546 
-0.46624 -0.04614 -0.201064 -0.721738 0.0335537 -0.29991 -0.761104 -0.0274702 -0.315804 
-0.827758 -0.0372858 -0.357784 -0.774947 0.00252463 -0.331326 -0.781058 0.0695926 -0.316996 