# vtk DataFile Version 4.0
Generated by LIGGGHTS
ASCII
DATASET POLYDATA
POINTS 519 float
-0.37164 0.00524898 -0.267468 -0.339177 -0.00817456 -0.249043 -0.312392 -0.00105955 -0.236745 
-0.301041 -0.018222 -0.231387 -0.293388 -0.0110927 -0.229221 -0.312887 -0.0458381 -0.22713 
-0.284676 -0.00097424 -0.22505 -0.303649 0.0396973 -0.226297 -0.274615 -0.00169184 -0.221865 
-0.280918 -0.0361709 -0.217273 -0.290387 0.040751 -0.21936 -0.388718 0.0632067 -0.222136 
-0.255025 -0.00852941 -0.213331 -0.258631 -0.00655721 -0.214941 -0.258385 -0.000704614 -0.215079 
-0.260669 0.00709277 -0.215642 -0.27011 0.0279975 -0.215301 -0.257408 -0.0223931 -0.212362 
-0.24692 -0.0136444 -0.209328 -0.248392 -0.00651475 -0.210619 -0.252125 0.00229189 -0.212293 
-0.262176 0.00888467 -0.212344 -0.254251 0.0101249 -0.211772 -0.250209 0.0141632 -0.210698 
-0.259812 0.0216079 -0.212506 -0.291296 0.0583387 -0.21094 -0.242482 -0.0106667 -0.206753 
-0.238909 -0.00224213 -0.20684 -0.245559 0.0244751 -0.207215 -0.231085 0.0147868 -0.202527 
-0.242508 0.0226299 -0.205144 -0.264527 -0.0566245 -0.20226 -0.227302 0.00429812 -0.200649 
-0.227946 0.00932444 -0.200794 -0.234863 0.027474 -0.200859 -0.249708 -0.0510969 -0.199624 
-0.242672 -0.0500141 -0.197526 -0.219447 -0.0111464 -0.197961 -0.217427 0.0047114 -0.197588 
-0.221075 0.0107866 -0.197729 -0.224523 0.0271899 -0.19773 -0.208148 -0.00398381 -0.192656 
-0.210811 0.00454024 -0.194788 -0.211742 0.0157133 -0.193211 -0.207371 0.018794 -0.192136 
-0.227151 0.0461225 -0.193025 -0.219149 -0.035454 -0.192487 -0.208486 -0.0311279 -0.190085 
-0.213309 -0.000412543 -0.187041 -0.209162 0.0118507 -0.189069 -0.208938 0.0277001 -0.191092 
-0.20812 0.0527653 -0.182502 -0.235609 -0.0724862 -0.179203 -0.210788 -0.00287164 -0.181016 
-0.206334 0.0019698 -0.191412 -0.206886 0.0379738 -0.186588 -0.207228 0.00201919 -0.184525 
-0.204715 0.019612 -0.190769 -0.20454 0.0226759 -0.18974 -0.203542 -0.00407571 -0.191789 
-0.202709 -0.0194953 -0.188966 -0.201541 0.0036162 -0.189767 -0.201321 -0.0363022 -0.184843 
-0.200695 -0.0423553 -0.183683 -0.0545189 0.0271637 -0.12671 -0.1072 0.0814841 -0.128192 
-0.124669 0.00195415 -0.126794 -0.196339 -0.00633772 -0.188697 -0.195008 -0.00243628 -0.187747 
-0.0766905 0.00441231 -0.126225 -0.0528177 0.0181865 -0.126317 -0.0787305 -0.00508171 -0.127405 
-0.0586013 0.0244038 -0.125741 -0.196569 -0.0112086 -0.187319 -0.193207 -0.00782072 -0.185551 
-0.0613915 -0.00808031 -0.126943 -0.188088 0.00234943 -0.184216 -0.194232 0.0111745 -0.187406 
-0.12579 0.0232569 -0.129506 -0.0615161 -0.00462667 -0.125823 -0.183188 -0.0170192 -0.181059 
-0.177925 -0.0112603 -0.180671 -0.182638 -0.00945637 -0.182798 -0.191499 -0.00403399 -0.1845 
-0.182494 -0.00644448 -0.182782 -0.179741 -0.00450727 -0.180565 -0.179043 0.00147433 -0.181467 
-0.18341 0.00689466 -0.183201 -0.19106 0.0189352 -0.185202 -0.194757 -0.0424099 -0.180154 
-0.188896 -0.0373195 -0.180648 -0.176208 -0.0137582 -0.179399 -0.169926 -0.0126961 -0.177139 
-0.193633 -0.0102858 -0.180879 -0.172487 -0.0109002 -0.178384 -0.175731 -0.00555462 -0.179951 
-0.17249 -0.00589802 -0.177541 -0.19587 -0.00243239 -0.182177 -0.174955 -0.000221579 -0.178643 
-0.169396 -0.00119469 -0.177404 -0.18454 0.00352451 -0.177163 -0.177061 0.0226278 -0.177731 
-0.198296 0.0474778 -0.180948 -0.18738 -0.0420081 -0.177263 -0.167969 -0.022883 -0.174984 
-0.173503 -0.0175515 -0.177052 -0.167469 -0.0094719 -0.17636 -0.164868 -0.00235116 -0.175508 
-0.163237 0.00674688 -0.173911 -0.169701 0.00746751 -0.17625 -0.165676 0.00828461 -0.1756 
-0.163449 0.0115003 -0.174404 -0.17067 0.0204517 -0.176583 -0.16474 0.0196475 -0.17424 
-0.170118 -0.0271351 -0.17452 -0.16409 -0.0217448 -0.173619 -0.162246 -0.0177026 -0.173402 
-0.162334 -0.0135459 -0.172805 -0.158085 -0.00681631 -0.172578 -0.188297 0.00070952 -0.170403 
-0.156136 0.000615849 -0.170704 -0.168462 0.0164196 -0.172836 -0.155788 0.0157609 -0.170841 
-0.150248 -0.0262955 -0.165967 -0.152338 -0.0159438 -0.169439 -0.149182 -0.0164587 -0.166987 
-0.155533 -0.00911362 -0.170281 -0.144488 -0.00687251 -0.166821 -0.149073 -0.000635264 -0.168894 
-0.148799 0.00509701 -0.166972 -0.152035 0.0108323 -0.169709 -0.148773 0.0119068 -0.168255 
-0.152124 0.0151008 -0.169311 -0.155152 0.0198738 -0.169063 -0.171968 -0.0621144 -0.16391 
-0.146031 -0.0361214 -0.163209 -0.146274 -0.0233714 -0.165873 -0.145422 -0.0181098 -0.166306 
-0.13733 -0.00886158 -0.162651 -0.139197 -0.00260917 -0.163744 -0.136855 0.00163785 -0.162646 
-0.135956 0.0095246 -0.163055 -0.138613 0.011557 -0.164068 -0.144109 0.0210647 -0.165314 
-0.149797 0.0258427 -0.165618 -0.142921 0.026505 -0.163935 -0.150713 0.0312081 -0.164635 
-0.149019 -0.0519786 -0.159173 -0.129236 -0.00472001 -0.159386 -0.137936 -0.00166746 -0.160005 
-0.136336 -0.0033698 -0.163065 -0.128732 0.00025544 -0.159274 -0.127144 0.0042703 -0.159553 
-0.126876 0.00700532 -0.158008 -0.129792 0.0182489 -0.15963 -0.16913 -0.0714342 -0.157583 
-0.139289 -0.0405208 -0.159245 -0.152559 -0.00531533 -0.15866 -0.123875 -0.00617912 -0.158206 
-0.120848 -0.00446296 -0.155876 -0.121563 0.00095762 -0.157292 -0.118995 0.00213971 -0.156197 
-0.137394 0.00748535 -0.157757 -0.130561 0.00540763 -0.156591 -0.125403 0.00416204 -0.154226 
-0.126474 0.0111327 -0.157765 -0.140473 0.0136296 -0.161903 -0.12281 0.0170744 -0.155873 
-0.177861 0.0218867 -0.159448 -0.125823 0.023187 -0.157319 -0.132245 0.0245703 -0.158656 
-0.140302 -0.0526903 -0.155757 -0.124969 -0.0347869 -0.154794 -0.122766 -0.023386 -0.154875 
-0.115444 -0.0054789 -0.1535 -0.116984 -0.00137917 -0.155335 -0.111154 -0.0021252 -0.152883 
-0.10847 0.0026691 -0.151734 -0.112975 0.00408739 -0.15256 -0.118599 0.00783843 -0.154737 
-0.115501 0.0175242 -0.153839 -0.118167 0.0191945 -0.153076 -0.122918 0.0370545 -0.153368 
-0.150922 0.0673397 -0.153034 -0.115294 -0.0309744 -0.150493 -0.109929 -0.0311024 -0.148185 
-0.110247 -0.00782633 -0.149654 -0.126935 -0.00324386 -0.150529 -0.122221 -0.000845285 -0.148481 
-0.108087 -0.000982582 -0.150147 -0.108834 0.00665727 -0.150736 -0.104117 0.00682855 -0.148417 
-0.12079 0.0507638 -0.148452 -0.099567 -0.0240032 -0.146241 -0.10021 -0.0175006 -0.14628 
-0.101209 -0.00919926 -0.147331 -0.0962127 -0.00730501 -0.14642 -0.107216 -0.0030768 -0.146596 
-0.0973177 -0.00252274 -0.145979 -0.0928184 -0.00318999 -0.145149 -0.104577 0.000455042 -0.146246 
-0.0946188 0.000509413 -0.145872 -0.0960575 0.00358308 -0.14648 -0.0981931 0.01111 -0.146989 
-0.0959489 0.0083519 -0.145158 -0.0958934 0.0128784 -0.145877 -0.102678 0.0171596 -0.147361 
-0.11654 0.0316732 -0.150212 -0.108798 -0.0347428 -0.143916 -0.0893233 -0.0136569 -0.143157 
-0.0881473 -0.0067458 -0.141484 -0.0967155 -0.00589352 -0.141233 -0.105779 -0.00184113 -0.141766 
-0.103671 -0.00398189 -0.145772 -0.0898052 -0.00168524 -0.142754 -0.0831977 0.00113933 -0.141084 
-0.0977822 0.0287229 -0.143613 -0.0970573 0.037277 -0.142613 -0.0955911 -0.0430355 -0.140495 
-0.0816037 -0.014949 -0.138748 -0.0751007 -0.0118045 -0.137186 -0.0923847 -0.00374796 -0.140177 
-0.0799275 -0.00131027 -0.138648 -0.119414 4.88859e-05 -0.139008 -0.0960181 0.0021067 -0.143807 
-0.0883878 0.00937181 -0.141947 -0.0825372 0.00987472 -0.140547 -0.0802489 0.00807831 -0.139724 
-0.0756772 0.00733683 -0.137786 -0.0870686 0.0372182 -0.138487 -0.110326 0.0625337 -0.138386 
-0.0745941 -0.0149964 -0.136868 -0.106629 -0.0135303 -0.138907 -0.094259 -0.0106519 -0.137314 
-0.0732111 -0.0129621 -0.13491 -0.0731863 -0.00872606 -0.136623 -0.0907483 -0.00738343 -0.135145 
-0.0757005 -0.0048962 -0.136795 -0.0717277 -0.00420183 -0.136044 -0.0889974 -0.00343613 -0.139092 
-0.0733238 -0.00146224 -0.135567 -0.0701316 -0.00116048 -0.135416 -0.0671628 -0.00141178 -0.13438 
-0.0747349 0.00256431 -0.136399 -0.0724668 0.00760232 -0.135268 -0.0746495 0.010964 -0.137155 
-0.073203 0.0134661 -0.136319 -0.0763339 0.0240042 -0.135411 -0.0680439 -0.0168895 -0.133884 
-0.0631135 -0.0110129 -0.132273 -0.06368 -0.0076396 -0.132669 -0.0571984 -0.00964097 -0.129563 
-0.0685498 -0.00526345 -0.133476 -0.0961345 -0.00221648 -0.134013 -0.0635884 -0.00264621 -0.131717 
-0.0596513 -0.0016518 -0.130918 -0.080168 -0.000778308 -0.130535 -0.0663495 0.00211659 -0.132442 
-0.0645792 0.00569238 -0.133094 -0.067207 0.00913655 -0.133083 -0.0966056 0.0152257 -0.136448 
-0.0669878 0.0145835 -0.132511 -0.0890824 0.0177782 -0.135744 -0.0674898 0.018615 -0.131952 
-0.0610919 -0.0250808 -0.128904 -0.0542856 -0.0213621 -0.127577 -0.0834421 -0.015461 -0.132345 
-0.0719058 -0.0197977 -0.131681 -0.0614216 -0.0157521 -0.129315 -0.093904 -0.00558669 -0.130063 
-0.0833396 -0.00372955 -0.13385 -0.0602967 -0.00606636 -0.130213 -0.0519202 -0.00617022 -0.127764 
-0.0878848 0.00224496 -0.131997 -0.0915648 0.0053165 -0.130204 -0.0585987 0.00301003 -0.129585 
-0.059924 0.0132645 -0.129697 -0.0496031 -0.00133777 -0.125302 -0.0649004 -0.00692845 -0.12677 
-0.0606874 -0.0491853 -0.123009 -0.0516916 -0.0316798 -0.124159 -0.0453719 -0.0142464 -0.12459 
-0.0331626 -0.00999095 0.0470956 -0.0320166 0.0149229 0.0524744 -0.0329629 -0.0163362 0.0532413 
-0.00135906 -0.0334283 0.0473948 -0.0223233 0.0149911 0.0495727 -0.00779733 -0.0159186 0.0487904 
-0.0208219 -0.0166198 0.0484458 -0.043266 0.00557283 -0.124023 -0.0124861 -0.00781637 0.0522113 
-0.0239985 -0.0277872 0.05439 -0.00885038 0.0206976 0.0448137 -0.0489602 0.025239 -0.124893 
-0.0499548 0.0309377 -0.124365 -0.0618665 -0.0610395 -0.120771 -0.0536731 -0.0233791 -0.121811 
-0.050295 -0.0175907 -0.123893 -0.0407469 -0.0130383 -0.120114 -0.123809 -0.0107258 -0.123929 
-0.033069 -0.00783014 -0.119681 -0.0552156 -0.00672811 -0.120596 -0.060548 -0.00138102 -0.120028 
-0.0576314 -0.0017869 -0.123296 -0.052541 -0.00355028 -0.119907 -0.0415614 -0.00253771 -0.119287 
-0.0545266 0.0035305 -0.121047 -0.0487692 0.00109945 -0.117245 -0.040112 0.00552672 -0.122785 
-0.0425675 0.0182527 -0.120685 -0.0561898 0.0288607 -0.123012 -0.0636568 0.0311584 -0.123157 
-0.0404546 0.0286987 -0.120795 -0.0383901 -0.0111152 -0.117733 -0.0297215 -0.00894004 -0.117253 
[...]
POINT_DATA 519
FIELD FieldData 7
id 1 519 int
56 9 16 30 19 34 3 31 32 
2 26 24 6 7 60 22 38 33 
10 23 36 27 5 21 1 68 79 
13 11 57 28 108 54 40 41 99 
58 88 42 101 48 29 46 14 72 
8 92 83 63 122 44 59 126 53 
45 130 142 43 93 49 4 87 67 
20 261 201 244 50 18 278 242 275 
323 15 116 249 51 85 222 333 52 
125 84 109 69 17 133 70 148 76 
62 12 112 162 96 35 166 100 64 
156 132 114 75 104 61 39 47 174 
145 65 73 55 71 37 147 74 94 
103 158 134 77 177 82 176 111 167 
192 182 25 136 150 118 95 154 163 
120 196 175 89 200 90 143 138 146 
140 98 139 137 78 187 186 128 121 
97 157 81 110 181 144 204 185 135 
198 153 209 105 233 80 91 274 66 
86 245 159 202 123 170 155 141 127 
271 161 113 124 165 129 203 188 227 
117 164 102 183 171 228 191 149 224 
152 208 243 172 180 206 260 131 178 
265 230 252 189 211 232 194 214 207 
215 199 119 205 221 219 115 257 234 
258 220 160 197 238 216 212 268 218 
251 169 281 193 168 236 106 247 285 
190 266 223 184 151 315 225 235 328 
217 239 253 321 254 240 226 269 262 
256 327 299 179 237 287 290 286 270 
250 229 248 246 259 241 267 273 289 
255 347 348 513 516 514 515 507 508 
517 335 519 511 510 213 324 107 295 
313 337 231 296 320 308 277 317 272 
305 322 297 291 294 210 173 365 306 
302 288 326 284 311 316 304 331 329 
340 282 334 354 319 309 303 279 314 
293 371 345 298 342 264 362 280 283 
332 325 355 350 310 338 312 373 300 
307 351 367 292 360 357 339 341 377 
358 363 356 375 359 353 195 368 343 
336 318 379 364 349 376 301 361 330 
352 369 378 346 374 344 372 366 370 
276 263 389 380 387 390 388 391 383 
386 384 385 381 392 382 397 400 394 
402 398 403 395 401 396 404 399 405 
393 413 417 409 407 412 410 411 418 
415 408 406 416 414 430 429 419 422 
424 428 425 420 426 423 421 442 427 
436 437 441 432 434 435 440 433 438 
431 439 454 452 447 453 451 446 443 
450 449 444 445 448 464 460 466 463 
457 458 455 462 459 456 467 465 461 
479 469 474 472 478 480 477 473 470 
475 476 471 468 486 484 490 487 493 
492 485 481 489 488 491 483 499 482 
503 502 504 500 501 494 498 506 497 
496 512 505 518 495 509 
type 1 519 int
1 1 1 1 1 1 1 1 1 
1 1 1 1 1 1 1 1 1 
1 1 1 1 1 1 1 1 1 
1 1 1 1 1 1 1 1 1 
1 1 1 1 1 1 1 1 1 
1 1 1 1 1 1 1 1 1 
1 1 1 1 1 1 1 1 1 
1 1 1 1 1 1 1 1 1 
1 1 1 1 1 1 1 1 1 
1 1 1 1 1 1 1 1 1 
1 1 1 1 1 1 1 1 1 
1 1 1 1 1 1 1 1 1 
1 1 1 1 1 1 1 1 1 
1 1 1 1 1 1 1 1 1 
1 1 1 1 1 1 1 1 1 
1 1 1 1 1 1 1 1 1 
1 1 1 1 1 1 1 1 1 
1 1 1 1 1 1 1 1 1 
1 1 1 1 1 1 1 1 1 
1 1 1 1 1 1 1 1 1 
1 1 1 1 1 1 1 1 1 
1 1 1 1 1 1 1 1 1 
1 1 1 1 1 1 1 1 1 
1 1 1 1 1 1 1 1 1 
1 1 1 1 1 1 1 1 1 
1 1 1 1 1 1 1 1 1 
1 1 1 1 1 1 1 1 1 
1 1 1 1 1 1 1 1 1 
1 1 1 1 1 1 1 1 1 
1 1 1 1 1 1 1 1 1 
1 1 1 1 1 1 1 1 1 
1 1 1 1 1 1 1 1 1 
1 1 1 1 1 1 1 1 1 
1 1 1 1 1 1 1 1 1 
1 1 1 1 1 1 1 1 1 
1 1 1 1 1 1 1 1 1 
1 1 1 1 1 1 1 1 1 
1 1 1 1 1 1 1 1 1 
1 1 1 1 1 1 1 1 1 
1 1 1 1 1 1 1 1 1 
1 1 1 1 1 1 1 1 1 
1 1 1 1 1 1 1 1 1 
1 1 1 1 1 1 1 1 1 
1 1 1 1 1 1 1 1 1 
1 1 1 1 1 1 1 1 1 
1 1 1 1 1 1 1 1 1 
1 1 1 1 1 1 1 1 1 
1 1 1 1 1 1 1 1 1 
1 1 1 1 1 1 1 1 1 
1 1 1 1 1 1 1 1 1 
1 1 1 1 1 1 1 1 1 
1 1 1 1 1 1 1 1 1 
1 1 1 1 1 1 1 1 1 
1 1 1 1 1 1 1 1 1 
1 1 1 1 1 1 1 1 1 
1 1 1 1 1 1 1 1 1 
1 1 1 1 1 1 1 1 1 
1 1 1 1 1 1 
i 3 519 int
0 0 0 0 0 0 0 0 0 
0 0 0 0 0 0 0 0 0 
0 0 0 0 0 0 0 0 0 
0 0 0 0 0 0 0 0 0 
0 0 0 0 0 0 0 0 0 
0 0 0 0 0 0 0 0 0 
0 0 0 0 0 0 0 0 0 
0 0 0 0 0 0 0 0 0 
0 0 0 0 0 0 0 0 0 
0 0 0 0 0 0 0 0 0 
0 0 0 0 0 0 0 0 0 
0 0 0 0 0 0 0 0 0 
0 0 0 0 0 0 0 0 0 
0 0 0 0 0 0 0 0 0 
0 0 0 0 0 0 0 0 0 
0 0 0 0 0 0 0 0 0 
0 0 0 0 0 0 0 0 0 
0 0 0 0 0 0 0 0 0 
0 0 0 0 0 0 0 0 0 
0 0 0 0 0 0 0 0 0 
0 0 0 0 0 0 0 0 0 
0 0 0 0 0 0 0 0 0 
0 0 0 0 0 0 0 0 0 
0 0 0 0 0 0 0 0 0 
0 0 0 0 0 0 0 0 0 
0 0 0 0 0 0 0 0 0 
0 0 0 0 0 0 0 0 0 
0 0 0 0 0 0 0 0 0 
0 0 0 0 0 0 0 0 0 
0 0 0 0 0 0 0 0 0 
0 0 0 0 0 0 0 0 0 
0 0 0 0 0 0 0 0 0 
0 0 0 0 0 0 0 0 0 
0 0 0 0 0 0 0 0 0 
0 0 0 0 0 0 0 0 0 
0 0 0 0 0 0 0 0 0 
0 0 0 0 0 0 0 0 0 
0 0 0 0 0 0 0 0 0 
0 0 0 0 0 0 0 0 0 
0 0 0 0 0 0 0 0 0 
0 0 0 0 0 0 0 0 0 
0 0 0 0 0 0 0 0 0 
0 0 0 0 0 0 0 0 0 
0 0 0 0 0 0 0 0 0 
0 0 0 0 0 0 0 0 0 
0 0 0 0 0 0 0 0 0 
0 0 0 0 0 0 0 0 0 
0 0 0 0 0 0 0 0 0 
0 0 0 0 0 0 0 0 0 
0 0 0 0 0 0 0 0 0 
0 0 0 0 0 0 0 0 0 
0 0 0 0 0 0 0 0 0 
0 0 0 0 0 0 0 0 0 
0 0 0 0 0 0 0 0 0 
0 0 0 0 0 0 0 0 0 
0 0 0 0 0 0 0 0 0 
0 0 0 0 0 0 0 0 0 
0 0 0 0 0 0 0 0 0 
0 0 0 0 0 0 0 0 0 
0 0 0 0 0 0 0 0 0 
0 0 0 0 0 0 0 0 0 
0 0 0 0 0 0 0 0 0 
0 0 0 0 0 0 0 0 0 
0 0 0 0 0 0 0 0 0 
0 0 0 0 0 0 0 0 0 
0 0 0 0 0 0 0 0 0 
0 0 0 0 0 0 0 0 0 
0 0 0 0 0 0 0 0 0 
0 0 0 0 0 0 0 0 0 
0 0 0 0 0 0 0 0 0 
0 0 0 0 0 0 0 0 0 
0 0 0 0 0 0 0 0 0 
0 0 0 0 0 0 0 0 0 
0 0 0 0 0 0 0 0 0 
0 0 0 0 0 0 0 0 0 
0 0 0 0 0 0 0 0 0 
0 0 0 0 0 0 0 0 0 
0 0 0 0 0 0 0 0 0 
0 0 0 0 0 0 0 0 0 
0 0 0 0 0 0 0 0 0 
0 0 0 0 0 0 0 0 0 
0 0 0 0 0 0 0 0 0 
0 0 0 0 0 0 0 0 0 
0 0 0 0 0 0 0 0 0 
0 0 0 0 0 0 0 0 0 
0 0 0 0 0 0 0 0 0 
0 0 0 0 0 0 0 0 0 
0 0 0 0 0 0 0 0 0 
0 0 0 0 0 0 0 0 0 
0 0 0 0 0 0 0 0 0 
0 0 0 0 0 0 0 0 0 
0 0 0 0 0 0 0 0 0 
0 0 0 0 0 0 0 0 0 
0 0 0 0 0 0 0 0 0 
0 0 0 0 0 0 0 0 0 
0 0 0 0 0 0 0 0 0 
0 0 0 0 0 0 0 0 0 
0 0 0 0 0 0 0 0 0 
0 0 0 0 0 0 0 0 0 
0 0 0 0 0 0 0 0 0 
0 0 0 0 0 0 0 0 0 
0 0 0 0 0 0 0 0 0 
0 0 0 0 0 0 0 0 0 
0 0 0 0 0 0 0 0 0 
0 0 0 0 0 0 0 0 0 
0 0 0 0 0 0 0 0 0 
0 0 0 0 0 0 0 0 0 
0 0 0 0 0 0 0 0 0 
0 0 0 0 0 0 0 0 0 
0 0 0 0 0 0 0 0 0 
0 0 0 0 0 0 0 0 0 
0 0 0 0 0 0 0 0 0 
0 0 0 0 0 0 0 0 0 
0 0 0 0 0 0 0 0 0 
0 0 0 0 0 0 0 0 0 
0 0 0 0 0 0 0 0 0 
0 0 0 0 0 0 0 0 0 
0 0 0 0 0 0 0 0 0 
0 0 0 0 0 0 0 0 0 
0 0 0 0 0 0 0 0 0 
0 0 0 0 0 0 0 0 0 
0 0 0 0 0 0 0 0 0 
0 0 0 0 0 0 0 0 0 
0 0 0 0 0 0 0 0 0 
0 0 0 0 0 0 0 0 0 
0 0 0 0 0 0 0 0 0 
0 0 0 0 0 0 0 0 0 
0 0 0 0 0 0 0 0 0 
0 0 0 0 0 0 0 0 0 
0 0 0 0 0 0 0 0 0 
0 0 0 0 0 0 0 0 0 
0 0 0 0 0 0 0 0 0 
0 0 0 0 0 0 0 0 0 
0 0 0 0 0 0 0 0 0 
0 0 0 0 0 0 0 0 0 
0 0 0 0 0 0 0 0 0 
0 0 0 0 0 0 0 0 0 
0 0 0 0 0 0 0 0 0 
0 0 0 0 0 0 0 0 0 
0 0 0 0 0 0 0 0 0 
0 0 0 0 0 0 0 0 0 
0 0 0 0 0 0 0 0 0 
0 0 0 0 0 0 0 0 0 
0 0 0 0 0 0 0 0 0 
0 0 0 0 0 0 0 0 0 
0 0 0 0 0 0 0 0 0 
0 0 0 0 0 0 0 0 0 
0 0 0 0 0 0 0 0 0 
0 0 0 0 0 0 0 0 0 
0 0 0 0 0 0 0 0 0 
0 0 0 0 0 0 0 0 0 
0 0 0 0 0 0 0 0 0 
0 0 0 0 0 0 0 0 0 
0 0 0 0 0 0 0 0 0 
0 0 0 0 0 0 0 0 0 
0 0 0 0 0 0 0 0 0 
0 0 0 0 0 0 0 0 0 
0 0 0 0 0 0 0 0 0 
0 0 0 0 0 0 0 0 0 
0 0 0 0 0 0 0 0 0 
0 0 0 0 0 0 0 0 0 
0 0 0 0 0 0 0 0 0 
0 0 0 0 0 0 0 0 0 
0 0 0 0 0 0 0 0 0 
0 0 0 0 0 0 0 0 0 
0 0 0 0 0 0 0 0 0 
0 0 0 0 0 0 0 0 0 
0 0 0 0 0 0 0 0 0 
0 0 0 0 0 0 0 0 0 
0 0 0 0 0 0 0 0 0 
0 0 0 0 0 0 0 0 0 
0 0 0 0 0 0 0 0 0 
0 0 0 0 0 0 0 0 0 

v 3 519 double
-1.56657 -0.176984 -0.983389 -1.4389 -0.122754 -0.69055 -1.35699 0.00876749 -0.573436 
-1.26398 0.134388 -0.53823 -1.08032 0.0601755 -0.461056 -1.35912 -0.0328721 -0.536903 
-1.27679 0.203887 -0.545798 -1.30357 -0.0289358 -0.539853 -1.1985 0.16319 -0.508604 
-1.05568 -0.0524818 -0.377765 -1.26683 -0.00491707 -0.52577 -1.20582 -0.267663 -0.834213 
-1.00238 -0.00539312 -0.418726 -1.14404 -0.0455233 -0.482523 -1.02887 0.120506 -0.43117 
-1.05427 0.067117 -0.288083 -0.973591 0.266837 -0.322843 -1.06929 -0.0836536 -0.413674 
-0.931143 -0.039285 -0.374649 -1.04279 -0.0148049 -0.44087 -0.954583 0.0834939 -0.402649 
-1.37864 0.0410424 -0.208862 -1.16994 0.0673992 -0.483305 -1.12297 0.0469416 -0.46791 
-1.12841 0.045412 -0.459196 -1.26276 -0.173943 -0.615689 -0.891506 -0.174307 -0.379766 
-1.02753 0.0303345 -0.432728 -1.05895 0.150768 -0.407239 -1.01924 -0.0702127 -0.444107 
-1.0676 0.0848769 -0.425077 -1.25741 0.110748 -0.521851 -0.893379 -0.0291014 -0.386721 
-0.976789 -0.0295736 -0.415405 -1.06771 -0.0184113 -0.440555 -1.19785 0.156682 -0.524914 
-1.2136 -0.0722592 -0.39642 -0.809997 -0.036058 -0.33239 -0.967969 -0.0164165 -0.404783 
-1.00442 -0.0428884 -0.433912 -0.990549 0.0619484 -0.410401 -0.917547 -0.0186744 -0.378749 
-0.933727 0.00774588 -0.388267 -0.934277 -0.0387899 -0.392449 -0.918333 0.113483 -0.373463 
-1.03411 -0.131377 -0.45869 -1.14502 0.144184 -0.518499 -0.859438 0.172743 -0.408879 
-1.15966 -0.0806927 -0.299434 -1.0586 -0.0849556 -0.549911 -0.975588 -0.181312 -0.446136 
-0.968285 -0.0790666 -0.383966 -1.14318 -0.105024 -0.311968 -0.789769 -0.0534328 -0.884371 
-0.833155 0.00100119 -0.344067 -1.15121 -0.110635 -0.516545 -1.29401 -0.0545875 -0.147954 
-0.886913 0.0304534 -0.346098 -1.02351 0.0971732 -0.290413 -0.917997 -0.119516 -0.393323 
-1.06056 -0.00929334 -0.45263 -0.807442 -0.0442073 -0.287311 -1.05701 -0.00478915 -0.428623 
-0.959255 0.255761 -0.490446 -0.495796 -0.176393 -0.190411 -0.802834 0.0754139 -0.231699 
-0.964192 -0.148545 -0.540399 -0.833867 -0.023394 -0.357235 -0.718117 -0.213951 -0.364572 
-0.765447 0.247102 -0.578673 -0.537223 -0.0394964 -0.225322 -0.670667 0.106494 -0.508904 
-0.953982 0.253468 -0.479871 -0.868383 -0.0379462 -0.379141 -0.821563 -0.0903067 -0.334362 
-0.731719 -0.148369 -0.317657 -0.801547 0.0596029 -0.328409 -0.816887 -0.0521416 -0.354426 
-0.984108 0.105001 -0.611666 -0.98478 0.150369 -0.439638 -0.629431 -0.0923262 -0.248784 
-0.638926 -0.0566319 -0.246312 -0.711759 -0.0326542 -0.304386 -0.996644 -0.0283876 -0.748224 
-0.754873 -0.0284324 -0.322808 -0.758695 -0.0250563 -0.317428 -0.534486 0.0224518 -0.224287 
-0.788572 0.054683 -0.330521 -1.00554 0.0138477 -0.306212 -1.01424 0.0335788 -0.410835 
-0.953282 0.0714508 -0.414945 -0.710874 -0.168178 -0.284185 -0.67715 -0.117701 -0.279236 
-1.07866 -0.109455 -0.654561 -0.695164 -0.0988637 -0.288764 -0.795962 -0.0763792 -0.326781 
-0.797309 -0.0761586 -0.315755 -1.05094 -0.015827 -0.646479 -0.805576 -0.0120109 -0.336382 
-0.784741 -0.0627857 -0.322148 -0.916158 -0.0320064 -0.280337 -1.02679 0.149993 -0.39366 
-1.06707 0.0999772 -0.394845 -0.97342 -0.0127703 -0.399985 -0.807202 -0.116955 -0.303673 
-0.912924 -0.140057 -0.346197 -0.78267 -0.0310428 -0.330189 -0.69002 0.0829686 -0.298594 
-0.799428 -0.0240587 -0.335043 -0.735739 0.00755918 -0.305702 -0.786852 0.0378982 -0.345554 
-0.608832 0.0204994 -0.247904 -0.99298 0.153757 -0.388746 -0.782616 0.0870495 -0.312841 
-0.835073 -0.160203 -0.545212 -0.916573 -0.00548337 -0.368705 -0.880453 0.00288925 -0.375872 
-0.904078 -0.0702976 -0.369574 -0.900116 0.00946667 -0.385627 -1.21799 -0.0254406 -0.406398 
-0.945368 -0.0208473 -0.389398 -0.982748 0.121986 -0.391387 -0.823402 0.0126289 -0.355224 
-0.672199 -0.108373 -0.26518 -0.783447 -0.00607251 -0.322656 -0.79291 -0.00505968 -0.316662 
-1.04285 0.091744 -0.416712 -0.599143 0.0232315 -0.249916 -0.779063 0.0745952 -0.308743 
-0.739692 0.272384 -0.363421 -0.849123 0.0479241 -0.340877 -0.75584 -0.0345286 -0.31278 
-0.792219 -0.0356756 -0.359292 -0.865843 -0.041738 -0.37828 -0.963041 -0.0709283 -0.356443 
-0.878331 -0.0203201 -0.338523 -1.06612 -0.278232 -0.383265 -0.797789 -0.0179652 -0.334984 
-0.711642 -0.0619745 -0.294574 -0.818749 0.0268395 -0.44815 -0.647015 -0.125557 -0.270815 
-0.670143 -0.00268394 -0.28811 -0.947498 -0.148696 -0.395262 -0.969868 0.173723 -0.349247 
-0.680412 0.196488 -0.221823 -0.823437 0.0200983 -0.326402 -0.749629 0.23029 -0.209631 
-0.750742 -0.00247403 -0.288317 -0.653993 -0.00804356 -0.271492 -0.753781 -0.194421 -0.387673 
-0.854115 -0.0875231 -0.276336 -0.598951 -0.0136699 -0.257527 -0.451939 0.00152816 -0.18522 
-0.62804 0.0706435 -0.19191 -0.84175 -0.155401 -0.364577 -0.880478 -0.0455532 -0.270144 
-0.716387 0.0843839 -0.321868 -1.18972 -0.0279261 -0.396588 -0.653861 -0.0110541 -0.270389 
-0.76909 0.0444362 -0.323888 -0.605934 0.103285 -0.260051 -0.675222 0.191841 -0.29 
-0.82079 0.173585 -0.218153 -0.777687 0.010396 -0.386586 -0.656646 -0.152135 -0.0869624 
-0.67364 0.119071 -0.283952 -0.988333 0.0898184 -0.906337 -0.723326 0.0992293 -0.287315 
-0.785109 0.0914827 -0.663792 -1.17406 -0.0883523 -0.497357 -0.662256 -0.0648435 -0.293481 
-0.770654 0.0702877 -0.342455 -0.992574 0.0330143 -0.417606 -0.748449 -0.186215 -0.43452 
-0.853126 0.142576 -0.39269 -0.719646 0.0365847 -0.302526 -0.662987 -0.110465 -0.279855 
-0.558063 0.00901049 -0.235763 -0.637857 -0.00676146 -0.271637 -0.713879 -0.00736418 -0.29189 
-0.502894 0.0922071 -0.206033 -0.572893 0.171978 -0.387495 -0.600123 -0.0118662 -0.250553 
-0.816427 0.121252 -0.246834 -0.608622 -0.187816 -0.214315 -0.469803 -0.0908183 -0.165056 
-0.822045 -0.0912996 -0.354982 -1.00693 -0.0593965 -0.370324 -0.943662 0.163204 -0.201225 
-0.676906 -0.0239523 -0.27327 -0.621266 0.0193587 -0.261427 -0.601958 -0.0483619 -0.256762 
-0.547469 0.233757 -0.14676 -0.752492 0.0549481 -0.321656 -0.785686 0.065769 -0.340641 
-0.650977 0.0112824 -0.277126 -0.554147 -0.00569834 -0.190341 -0.7786 -0.0673794 -0.269508 
-0.503027 -0.032814 -0.210205 -0.471352 -0.0598448 -0.150356 -0.709358 -0.0394517 -0.234694 
-0.323561 -0.1367 -0.405439 -0.662398 -0.0669833 -0.281905 -0.658426 0.113523 -0.27481 
-0.636857 -0.0256508 -0.334559 -0.547494 0.000758708 -0.254283 -0.63404 -0.0213609 -0.270783 
-0.915968 0.437587 -0.810314 -0.602464 -0.141175 -0.251037 -0.585632 0.0639858 -0.249646 
-0.496132 0.029298 -0.2037 -0.61733 -0.0597241 -0.216709 -0.951382 -0.234366 -0.12758 
-0.784245 -0.117477 -0.493779 -0.547443 -0.139185 -0.211688 -0.509672 -0.0765725 -0.217668 
-0.800837 -0.0744231 -0.351756 -0.563678 0.113704 -0.206229 -0.61469 0.0935023 -0.282367 
-0.636388 0.0665689 -0.277336 -0.512618 -0.0219108 -0.220688 -0.786341 0.0935116 -0.50865 
-0.471624 -0.0482396 -0.195493 -0.875759 -0.0433322 -0.158759 -0.927691 -0.0112256 -0.649461 
-0.557853 0.237312 -0.588418 -0.549808 0.071591 -0.223395 -0.533883 0.0882523 -0.225401 
-0.461948 0.034474 -0.205094 -0.776743 0.213052 -0.26897 -0.812586 0.126571 -0.267786 
-0.502236 -0.0585121 -0.200776 -0.876902 -0.00608837 -0.70205 -0.678894 0.151412 -0.368875 
-0.586846 -0.0780044 -0.118406 -0.377898 -0.0462491 -0.158117 -0.998349 -0.0465394 0.031956 
-0.428168 -0.0418622 -0.180772 -0.41297 0.0314248 -0.143361 -0.70294 0.00546233 -0.0245692 
-0.438323 -0.0049769 -0.0889872 -0.37023 0.0456244 -0.255169 -0.368827 0.0310811 -0.156987 
-0.507314 0.00647092 -0.212642 -0.453855 0.113149 -0.169934 -0.528017 0.110827 -0.209312 
-0.518456 0.0986816 -0.211118 -0.683692 -0.0482966 -0.296715 -0.699804 0.0106207 -0.296421 
-0.527576 0.124749 -0.227518 -0.508467 0.0272632 -0.210848 -0.250068 -0.0184708 -0.088933 
-0.491695 0.0167613 -0.218202 -0.839388 0.0351112 -0.494497 -0.492734 -0.00291642 -0.193963 
-0.396561 0.119077 -0.15526 -0.670593 -0.131311 -0.279575 -0.509612 0.0778295 -0.200478 
-0.356758 0.0705682 -0.134035 -0.568411 -0.0940835 -0.243519 -0.78163 0.439008 -0.728811 
-0.504283 -0.0387424 -0.204699 -1.15567 -0.27061 -0.597231 -0.657726 -0.0151639 -0.327686 
-0.438859 0.0574226 -0.190329 -0.530142 0.0938538 -0.232944 -0.911669 -0.0126273 -0.538243 
-0.805865 -0.44383 -0.635602 -0.737501 -0.0125348 -0.435312 -0.748454 0.179672 -0.556514 
-0.792716 0.0694721 -0.826524 -0.521265 -0.071242 -0.188061 -0.363173 0.0245657 -0.152784 
-0.719218 -0.147749 -0.712355 -0.724753 0.169263 -0.596539 -0.48877 -0.217838 -0.210843 
-0.730581 -0.0620166 -0.302203 -0.507397 -0.0504172 -0.0996419 -0.622493 0.188606 -0.567189 
-0.389563 -0.140141 -0.185768 -0.790009 -0.256296 -0.334539 -0.638384 -0.206682 -0.209831 
0 0 -1.02811 0 0 -1 0 0 -1 
0 0 -1.02526 0 0 -1.00417 0 0 -1.01182 
0 0 -1.01516 -0.372494 -0.1529 -0.179935 0 0 -1 
0 0 -1 0 0 -1.04969 -0.425304 0.064263 -0.166725 
-0.502475 0.0530528 -0.150078 -0.457939 0.0720847 -0.214109 -0.558422 0.145696 -0.319708 
-0.958363 -0.324233 -0.445159 -0.470956 0.374232 -0.223169 -0.963516 -0.267767 -0.536012 
-0.475233 -0.0533586 -0.118449 -0.733718 -0.150871 -0.296317 -0.491928 0.0191641 -0.298878 
-0.903547 0.0396995 -0.394755 -0.767544 -0.138101 0.056804 -0.622503 -0.33666 -0.0862817 
-0.745019 0.212347 -0.302134 -0.592848 0.0533559 0.117901 -0.689198 -0.20124 -0.171282 
-0.54297 -0.156081 -0.234147 -0.595586 0.130848 -0.19582 -0.710699 -0.00679107 -0.321346 
-0.435509 -0.0692516 -0.195855 -1.09961 0.499118 -0.261741 -0.480715 -0.0740598 -0.196081 
-0.745463 -0.0422829 -0.304417 -0.717273 -0.102715 -0.53828 -0.773989 0.136648 -0.0304411 
-0.736967 -0.0453695 -0.476365 -0.797345 0.268341 -0.266136 -0.432987 -0.30328 -0.61513 
-1.11898 0.164707 -0.391671 -0.709449 -0.135818 -0.0580197 -0.689648 0.0399044 -0.188828 
-0.115246 -0.114201 0.00915511 -0.701581 -0.284748 -0.462059 -0.458278 -0.138042 -0.261931 
-0.442007 -0.0347972 -0.0160681 -0.394503 0.0795266 -0.299484 -0.71129 0.317377 -0.286729 
-0.495418 0.0881709 -0.209622 -0.725946 0.140321 -0.455257 -0.743576 0.138801 -0.304431 
-0.695204 -0.0444074 -0.322347 -0.606112 0.00444289 -0.0839371 -0.755153 0.0214537 0.0173379 
-0.264886 -0.322459 -0.299017 -0.91156 0.107002 -0.476535 -0.460566 -0.0373356 0.213568 
-0.710106 -0.536048 -0.249027 -0.51695 -0.137269 -0.396912 -0.574283 -0.11769 -0.508519 
-0.602134 -0.122995 -0.155547 -0.830882 0.133541 -0.291022 -0.637257 0.262167 0.0190992 
-0.639508 0.236252 -0.31456 -0.702445 0.289009 -0.25754 -0.518014 0.112446 0.0287805 
-0.76563 -0.00569883 -0.273575 -0.716359 0.127995 0.214965 -0.610341 0.243186 -0.179896 
-0.722121 0.16775 -0.167644 -0.475758 0.092046 0.290439 -0.73416 -0.0215758 0.189283 
-0.720656 0.264568 -0.364834 -0.327964 -0.269582 0.00362308 -0.250808 -0.16743 0.113814 
-0.596018 -0.0866007 -0.216674 -0.876816 0.0276604 -0.0640063 -0.521899 -0.163079 0.405537 
-0.71468 -0.146817 0.126169 -0.386479 -0.373546 -0.0551407 -0.449617 0.228945 0.149602 
-0.702535 -0.269751 0.165894 -0.696419 -0.326852 0.0907907 -0.231822 0.0281228 0.0882716 
-0.17719 -0.214505 -0.0129899 -0.676778 0.184377 0.271789 -0.487043 0.0806253 -0.484616 
-0.632001 -0.130316 0.376518 -0.494118 -0.136515 -1.12858 -1.20476 0.435405 -1.02031 
-0.406476 0.628396 -0.717434 -0.733544 0.106303 0.02928 -0.732458 0.106146 0.160785 
-0.723682 -0.0268842 -0.303961 -0.00763704 -0.189667 -0.0046882 -0.795214 -0.0596858 -0.593897 
-0.725765 0.00910057 -0.154531 -0.54123 0.0256256 0.204955 -0.701973 -0.269535 0.202707 
-0.716241 0.262947 -0.0356279 -0.625891 0.205692 0.00903665 -0.704844 0.230165 -0.0487855 
-0.727752 0.00938673 0.283948 -0.254427 -0.052043 0.336523 -1.33522 0.486977 -0.0240141 
-0.584647 -0.0668823 -1.08689 0.129574 -0.376071 0.0698197 0 0 -2.01901 
0.0518832 0.262475 -0.813612 0.125267 -0.467255 -0.780312 0 0 -2.00253 
0 0 -2.00185 0 0 -1.99459 0 0 -1.9939 
0 0 -1.9939 0 0 -1.98644 0 0 -1.98537 
0 0 -1.96486 0 0 -1.9578 0 0 -1.95338 
0 0 -1.92131 0 0 -1.91199 0 0 -1.91581 
0 0 -1.91591 0 0 -1.91405 0 0 -1.88805 
0 0 -1.90031 0 0 -1.89168 0 0 -1.86559 
0 0 -1.87265 0 0 -1.87314 0 0 -1.85028 
0 0 -1.85911 0 0 -1.84145 0 0 -1.8389 
0 0 -1.81565 0 0 -1.80555 0 0 -1.82124 
0 0 -1.82419 0 0 -1.8235 0 0 -1.79211 
0 0 -1.80368 0 0 -1.78818 0 0 -1.77975 
0 0 -1.76896 0 0 -1.76062 0 0 -1.73786 
0 0 -1.73688 0 0 -1.73443 0 0 -1.70195 
0 0 -1.71942 0 0 -1.70686 0 0 -1.70706 
0 0 -1.68704 0 0 -1.70156 0 0 -1.66654 
0 0 -1.67537 0 0 -1.64319 0 0 -1.6529 
0 0 -1.63691 0 0 -1.63417 0 0 -1.62279 
0 0 -1.60984 0 0 -1.60954 0 0 -1.60278 
0 0 -1.58129 0 0 -1.58286 0 0 -1.57452 
0 0 -1.57442 0 0 -1.5551 0 0 -1.54362 
0 0 -1.5241 0 0 -1.52057 0 0 -1.51537 
0 0 -1.50654 0 0 -1.51076 0 0 -1.51125 
0 0 -1.49614 0 0 -1.48721 0 0 -1.47407 
0 0 -1.46288 0 0 -1.4723 0 0 -1.43532 
0 0 -1.42669 0 0 -1.42669 0 0 -1.42659 
0 0 -1.41776 0 0 -1.41521 0 0 -1.39981 
0 0 -1.39765 0 0 -1.41128 0 0 -1.39049 
0 0 -1.37077 0 0 -1.37803 0 0 -1.39039 
0 0 -1.34732 0 0 -1.32329 0 0 -1.33496 
0 0 -1.33614 0 0 -1.30249 0 0 -1.29141 
0 0 -1.29533 0 0 -1.27139 0 0 -1.28091 
0 0 -1.26374 0 0 -1.26423 0 0 -1.261 
0 0 -1.25275 0 0 -1.24491 0 0 -1.23804 
0 0 -1.23402 0 0 -1.21077 0 0 -1.20292 
0 0 -1.22176 0 0 -1.22744 0 0 -1.22048 
0 0 -1.19527 0 0 -1.18516 0 0 -1.18811 
0 0 -1.18605 0 0 -1.14847 0 0 -1.1627 
0 0 -1.13523 0 0 -1.13611 0 0 -1.13199 
0 0 -1.12209 0 0 -1.0853 0 0 -1.06833 
0 0 -1.0801 0 0 -1.07078 0 0 -1.09413 
0 0 -1.08706 0 0 -1.03978 0 0 -1.0644 
0 0 -1.03782 0 0 -1.06548 0 0 -1.05008 

f 3 519 double
0 0 -0.000346714 0 0 -0.000346714 -0.00037536 3.15056e-05 -0.000241605 
0 0 -0.000346714 -8.74699e-05 2.26198e-05 -3.96327e-05 -3.01263e-05 4.30471e-05 -0.000159224 