# vtk DataFile Version 4.0
Generated by LIGGGHTS
ASCII
DATASET POLYDATA
POINTS 844 float
-0.200675 -0.0127087 -0.18995 -0.205533 -0.0703115 -0.17058 -0.210322 0.0377429 -0.188094 
-0.20111 0.0293966 -0.187517 -0.47958 -0.000250218 -0.399881 -0.407333 0.000704186 -0.396703 
-0.469979 0.00586505 -0.397432 -0.435072 0.0096711 -0.397224 -0.446081 0.0115475 -0.397453 
-0.455288 -0.00460288 -0.396231 -0.462809 0.000774887 -0.395129 -0.460957 0.00435755 -0.396404 
-0.441335 0.00882328 -0.394212 -0.474798 0.0120357 -0.395754 -0.457297 -0.00555771 -0.390554 
-0.479056 0.00068277 -0.387609 -0.439192 0.00317457 -0.386738 -0.475582 0.0155007 -0.387193 
-0.469922 -0.00286285 -0.385414 -0.473311 0.00965009 -0.383928 -0.441232 0.00732394 -0.383086 
-0.476076 -0.0227244 -0.380241 -0.464235 -0.0118706 -0.381121 -0.488753 0.0062703 -0.381023 
-0.437771 0.00957844 -0.380122 -0.455218 0.0122454 -0.381187 -0.468795 -0.0285651 -0.373541 
-0.439524 -0.00903827 -0.374968 -0.469599 0.000275135 -0.373956 -0.421745 0.00260307 -0.372323 
-0.473557 0.00609534 -0.374881 -0.449747 0.00350934 -0.373892 -0.446679 -0.0190003 -0.371317 
-0.442287 -0.00508755 -0.368803 -0.462764 -0.00260777 -0.369087 -0.426522 0.00535454 -0.368199 
-0.432088 -0.0111482 -0.365623 -0.453414 -0.00076017 -0.364996 -0.468589 0.00272409 -0.364973 
-0.431703 -0.00763677 -0.361407 -0.458558 0.0113028 -0.363751 -0.451929 -0.00979686 -0.360803 
-0.450686 -0.0021336 -0.36045 -0.411191 -0.0259941 -0.356395 -0.44868 -0.0105635 -0.354611 
-0.461561 -0.00402411 -0.354865 -0.450137 -0.0039295 -0.35591 -0.435796 0.00321123 -0.353925 
-0.43074 -0.00515262 -0.352574 -0.448603 0.00324562 -0.353351 -0.442611 0.00837293 -0.349311 
-0.449508 -0.00363927 -0.345296 -0.43404 -0.00622877 -0.345893 -0.442619 0.00702096 -0.342958 
-0.428449 0.00399404 -0.344755 -0.452159 0.0469755 -0.343116 -0.429444 0.000271852 -0.339545 
-0.431409 0.00596814 -0.342935 -0.429205 0.0101368 -0.340969 -0.430911 -0.00961262 -0.338709 
-0.433226 -0.00423575 -0.338817 -0.42963 -0.0138881 -0.334845 -0.430638 -0.00196738 -0.333913 
-0.431068 0.0299114 -0.332803 -0.419423 0.00413355 -0.332079 -0.411076 0.00931876 -0.327859 
-0.411819 0.0213467 -0.326738 -0.432129 -0.0175715 -0.323588 -0.42446 -0.0078207 -0.324922 
-0.414223 0.00429813 -0.321627 -0.424744 0.0157154 -0.323512 -0.409841 0.0243412 -0.322976 
-0.441353 0.0420155 -0.32322 -0.420757 -0.0201915 -0.31881 -0.420468 -0.00980152 -0.320252 
-0.403414 0.00392256 -0.320996 -0.416212 0.0192476 -0.318569 -0.414169 0.0109659 -0.315838 
-0.405252 0.00526569 -0.31356 -0.41076 0.0136021 -0.31247 -0.412844 0.0182284 -0.312899 
-0.415648 -0.0150377 -0.310471 -0.400034 -0.00380342 -0.307501 -0.404191 0.000461576 -0.307392 
-0.409263 0.00867324 -0.307277 -0.409027 0.0186864 -0.308122 -0.41168 -0.0189453 -0.306322 
-0.399093 -0.000111449 -0.304267 -0.412724 0.00525552 -0.306256 -0.40218 0.00570325 -0.303978 
-0.398945 0.0101299 -0.304398 -0.422444 0.0206367 -0.305192 -0.41374 -0.0388796 -0.303529 
-0.395414 -0.00211007 -0.300248 -0.406527 0.0190954 -0.300348 -0.392506 -0.00461829 -0.297626 
-0.405976 -0.0193448 -0.29645 -0.391756 -0.0147153 -0.294257 -0.385171 -0.0109648 -0.29325 
-0.38969 -0.00644773 -0.295482 -0.389854 0.00415832 -0.294662 -0.428616 0.0100408 -0.294796 
-0.399144 0.00685522 -0.294517 -0.386883 0.0082627 -0.295752 -0.396058 0.0319189 -0.295288 
-0.389275 -0.00956957 -0.291348 -0.38506 -0.00644305 -0.290125 -0.387481 0.00484523 -0.289519 
-0.388962 0.0195209 -0.289929 -0.390719 -0.0240989 -0.286273 -0.392099 -0.0196258 -0.287116 
-0.383565 -0.0129671 -0.288081 -0.382639 0.00565814 -0.286869 -0.386998 0.0128494 -0.286371 
-0.392611 -0.0307425 -0.283722 -0.391257 -0.00195889 -0.283787 -0.39218 0.0143061 -0.285319 
-0.416977 0.0545834 -0.285467 -0.381101 0.0099131 -0.281131 -0.406461 -0.047683 -0.277239 
-0.372091 0.0116574 -0.27697 -0.378026 0.0347337 -0.27757 -0.380316 -0.0112457 -0.274237 
-0.374342 0.00314031 -0.272446 -0.373547 0.0194373 -0.271777 -0.365127 0.0116742 -0.269463 
-0.366692 -0.0278029 -0.266652 -0.368786 -0.0119716 -0.267286 -0.356343 -0.011728 -0.264437 
-0.3636 -0.00382256 -0.265332 -0.366821 0.0145072 -0.267284 -0.365975 -0.0232722 -0.263684 
-0.358351 -0.0279599 -0.258154 -0.353199 -0.00328517 -0.25818 -0.348804 0.00120506 -0.257118 
-0.355771 0.0187064 -0.257523 -0.357778 0.0231582 -0.259352 -0.353085 -0.0110873 -0.255323 
-0.344469 -0.0100242 -0.256804 -0.346077 0.000316189 -0.254719 -0.34252 0.00359265 -0.256566 
-0.344962 0.00410346 -0.253685 -0.350225 0.0182901 -0.253633 -0.347363 -0.00438375 -0.253027 
-0.343296 -0.00161619 -0.250549 -0.339744 -0.00364233 -0.249827 -0.342096 0.00586008 -0.251502 
-0.341077 0.0174326 -0.250237 -0.342853 -0.0128172 -0.248789 -0.338924 -0.0127846 -0.248873 
-0.338612 -0.00727325 -0.24941 -0.335052 -0.00578486 -0.24643 -0.350685 0.013912 -0.246791 
-0.339396 0.0127433 -0.24866 -0.336896 0.0173879 -0.24764 -0.339563 0.0223716 -0.247305 
-0.345914 0.0333283 -0.246794 -0.336482 -0.016544 -0.245935 -0.325363 -0.0119154 -0.24255 
-0.328116 -0.00523354 -0.2431 -0.32885 -0.00173277 -0.244927 -0.32672 0.00380226 -0.24382 
-0.331079 0.00975812 -0.245452 -0.327008 0.0084799 -0.242725 -0.333586 0.016847 -0.244715 
-0.332876 0.0222099 -0.243184 -0.342894 0.0368353 -0.244183 -0.352882 0.047005 -0.244517 
-0.322468 -0.0125956 -0.241319 -0.322661 -0.0079059 -0.240612 -0.323473 -0.00299489 -0.241255 
-0.31524 0.000651038 -0.23903 -0.322607 0.0159488 -0.240772 -0.318402 0.0144124 -0.239314 
-0.321142 0.0183422 -0.239693 -0.31838 0.0174926 -0.238689 -0.328086 0.0267687 -0.240859 
-0.32363 0.0257827 -0.239276 -0.323123 -0.0283045 -0.238204 -0.319791 -0.022367 -0.238402 
-0.315267 -0.0146746 -0.237831 -0.314028 -0.0175232 -0.236794 -0.314776 -0.00840466 -0.238483 
-0.310929 -0.000850463 -0.237219 -0.310773 0.0041037 -0.23693 -0.307913 0.00573779 -0.235622 
-0.314857 0.00813697 -0.238396 -0.315213 0.01244 -0.237191 -0.308936 0.0110018 -0.235723 
-0.315251 0.0175121 -0.236132 -0.321707 0.0224427 -0.238026 -0.317483 0.0239999 -0.235749 
-0.323211 0.0287498 -0.236602 -0.308386 -0.0148145 -0.234977 -0.301807 -0.011007 -0.231682 
-0.305103 -0.00809345 -0.234476 -0.315155 -0.00490192 -0.232757 -0.302621 -0.0052114 -0.233517 
-0.307779 0.00126256 -0.234762 -0.300208 0.00971757 -0.23212 -0.311229 -0.0349248 -0.23114 
-0.29243 -0.0117238 -0.22875 -0.297076 -0.00807109 -0.231102 -0.294065 -0.00448953 -0.228893 
-0.295191 0.000800429 -0.230625 -0.292725 0.00280983 -0.228296 -0.299842 0.00342673 -0.23128 
-0.297273 0.0174047 -0.229883 -0.297368 0.020404 -0.229131 -0.301067 -0.0383937 -0.225599 
-0.298969 -0.0322935 -0.226053 -0.293477 -0.0261699 -0.225472 -0.294633 -0.0214914 -0.227061 
-0.290479 -0.0232141 -0.226122 -0.287921 -0.0163852 -0.22634 -0.284427 -0.016139 -0.224904 
-0.290626 -0.00927573 -0.228116 -0.28332 0.00956164 -0.225006 -0.295791 0.0269397 -0.227477 
-0.344199 0.0605713 -0.227266 -0.283124 -0.022982 -0.223098 -0.283122 -0.0200069 -0.223657 
-0.278732 -0.0194026 -0.221937 -0.281672 -0.0142446 -0.223952 -0.278274 -0.0131931 -0.222637 
-0.279564 0.0200012 -0.222017 -0.276819 -0.0301035 -0.218736 -0.280692 -0.0259327 -0.220354 
-0.274265 -0.0262742 -0.217598 -0.274192 -0.0128064 -0.21988 -0.274647 0.00557479 -0.220573 
-0.267424 0.00670313 -0.218545 -0.273815 0.0139702 -0.219508 -0.276639 0.0180578 -0.220036 
-0.28145 0.0285389 -0.221021 -0.282013 -0.034666 -0.215784 -0.269239 -0.028991 -0.214643 
-0.270205 -0.0256186 -0.217196 -0.261177 -0.0209756 -0.214293 -0.261112 -0.0127532 -0.214396 
-0.261632 -0.00843412 -0.21613 -0.263262 -0.00445861 -0.215901 -0.259317 -0.0050072 -0.215138 
-0.257712 -0.00249574 -0.214719 -0.25542 -0.000147698 -0.213795 -0.26347 0.00321249 -0.215972 
-0.257058 0.00305226 -0.214339 -0.259635 0.00418609 -0.21538 -0.259791 0.00742681 -0.215294 
-0.256866 0.00813951 -0.214035 -0.264906 0.013284 -0.215925 -0.260263 0.0129195 -0.214033 
-0.271839 0.0308208 -0.216318 -0.255841 -0.0154971 -0.211841 -0.248881 -0.0110551 -0.210519 
-0.257607 -0.00662718 -0.212952 -0.254149 -0.00560358 -0.21309 -0.252949 -0.00193396 -0.212748 
-0.250232 -0.00260445 -0.211578 -0.254389 0.0026511 -0.213036 -0.251696 0.00176072 -0.212067 
-0.25419 0.00587793 -0.213015 -0.266978 0.00961288 -0.213899 -0.253368 0.0102714 -0.212477 
-0.252707 0.0134944 -0.211839 -0.262066 0.0195628 -0.213756 -0.262684 0.0283664 -0.213281 
-0.278522 -0.0543102 -0.207916 -0.27481 -0.0497877 -0.207828 -0.249484 -0.018831 -0.209711 
-0.246907 -0.0177213 -0.208578 -0.246522 -0.0146291 -0.209019 -0.244056 -0.0161653 -0.207805 
-0.243847 -0.010618 -0.208451 -0.241737 -0.0124244 -0.206863 -0.255105 -0.00828477 -0.208991 
-0.246792 -0.00508186 -0.210011 -0.243845 -0.00685732 -0.208684 -0.246263 -0.00119877 -0.209942 
-0.24312 0.00223308 -0.208485 -0.248182 0.00474855 -0.209431 -0.249933 0.0103488 -0.209948 
-0.247644 0.0138138 -0.209664 -0.241066 0.0133961 -0.206953 -0.248631 0.0242258 -0.208546 
-0.251109 0.0282694 -0.208491 -0.254657 -0.0451243 -0.203379 -0.237099 -0.0178408 -0.204778 
-0.240725 -0.0156344 -0.206551 -0.236486 -0.00411981 -0.205683 -0.241191 -0.00310912 -0.20667 
-0.234443 -0.00204752 -0.204948 -0.231695 0.00685487 -0.203524 -0.238435 0.0100615 -0.206228 
-0.239915 0.0201719 -0.204428 -0.255637 0.0412556 -0.206352 -0.259814 0.0486309 -0.20388 
-0.234383 -0.0283164 -0.201279 -0.239686 -0.0272634 -0.202968 -0.230288 -0.0258241 -0.20037 
-0.256519 -0.0111447 -0.20069 -0.228936 -0.00902982 -0.202164 -0.228635 -0.0058799 -0.202296 
-0.226506 -0.000237313 -0.200425 -0.238293 0.00206567 -0.200481 -0.230956 0.00151839 -0.20228 
-0.229119 0.00572378 -0.202476 -0.225901 0.00460051 -0.201122 -0.223194 0.00367822 -0.199849 
-0.225273 0.0172156 -0.199797 -0.230828 0.0177064 -0.200945 -0.235321 0.0218872 -0.203374 
-0.236384 0.0312522 -0.201641 -0.241356 0.0346359 -0.201728 -0.238761 -0.0338221 -0.199766 
-0.228736 -0.0299998 -0.198846 -0.220901 -0.020049 -0.197495 -0.226132 -0.010464 -0.199706 
[...]
POINT_DATA 844
FIELD FieldData 7
id 1 844 int
694 623 690 725 308 213 370 389 345 
333 280 261 235 380 269 379 225 332 
307 404 346 381 253 267 168 240 405 
425 294 283 356 306 321 305 373 344 
322 391 406 247 504 303 378 359 237 
383 316 330 241 463 401 336 285 354 
334 339 331 411 384 376 226 329 291 
457 173 438 392 398 328 441 296 362 
439 456 335 402 367 326 395 298 419 
371 248 377 468 369 386 393 414 481 
429 496 535 426 407 388 360 358 349 
273 374 584 421 424 448 432 415 394 
423 437 452 409 447 410 523 400 446 
510 477 618 382 490 443 442 399 276 
499 470 385 449 475 195 467 387 428 
461 540 464 462 465 427 513 483 343 
469 478 458 473 460 430 472 434 561 
471 502 459 494 484 351 408 353 550 
480 440 357 431 526 436 476 422 433 
451 453 416 390 417 397 525 568 418 
479 363 435 500 375 340 466 368 450 
509 533 537 573 412 455 554 611 505 
599 364 501 582 492 482 366 507 558 
583 615 630 560 508 522 543 564 603 
645 530 541 596 515 361 493 619 498 
566 518 420 546 497 445 538 574 572 
578 520 581 489 553 559 514 495 454 
531 551 444 524 556 529 591 548 549 
719 511 576 512 545 503 589 488 491 
528 656 588 474 534 516 676 677 487 
565 527 519 563 604 571 542 594 506 
532 562 521 517 609 635 683 675 614 
602 486 485 577 606 557 742 620 586 
627 547 608 662 555 661 587 698 610 
658 552 580 633 598 655 590 624 702 
647 775 650 595 715 711 674 570 680 
654 681 575 629 734 692 628 682 613 
707 621 632 607 585 625 536 600 685 
648 699 736 612 631 671 716 644 673 
726 809 652 641 659 666 617 263 637 
592 567 616 643 634 640 923 712 669 
721 636 544 597 697 639 638 657 812 
700 691 539 569 601 653 622 735 739 
660 665 649 642 626 704 668 593 688 
703 646 727 744 713 670 678 663 717 
651 679 710 686 684 730 760 720 718 
755 784 701 724 800 672 667 664 754 
794 696 741 747 777 757 782 732 774 
579 822 714 776 827 788 709 756 740 
769 750 810 753 695 748 729 706 733 
722 737 816 838 708 805 826 790 723 
738 867 789 792 866 780 803 771 752 
839 781 823 765 693 705 764 766 820 
687 853 785 728 778 846 762 743 828 
845 773 783 758 751 795 801 808 797 
814 840 787 903 689 833 759 768 819 
900 849 767 731 875 836 798 772 829 
813 837 746 763 811 856 832 854 843 
817 824 848 796 892 852 761 791 874 
891 871 818 841 830 799 806 889 911 
831 807 868 872 815 883 786 821 862 
804 858 851 779 870 859 928 958 909 
847 793 863 880 855 878 873 913 922 
899 940 844 879 898 918 931 908 919 
881 887 942 857 882 770 835 842 865 
956 912 888 749 825 890 941 902 894 
1150 834 957 861 933 1138 897 935 924 
860 885 1148 946 869 893 921 901 926 
896 964 954 916 925 876 936 920 938 
929 976 907 895 904 884 1009 984 915 
850 983 943 959 967 996 877 886 905 
962 864 951 981 989 971 927 988 968 
978 947 993 961 969 979 1001 992 986 
973 932 910 945 1007 965 977 906 985 
930 953 991 980 987 982 952 995 949 
934 1004 944 1006 990 970 994 966 975 
939 948 955 1008 937 914 1003 950 972 
974 960 997 999 605 917 963 998 1005 
1002 1014 1020 1021 1000 1019 1013 1022 1017 
1011 1015 1016 1018 1010 802 745 1012 1031 
1026 1027 1029 1025 1028 1034 1032 1033 1035 
1024 1023 1030 1040 1042 1047 1038 1045 1036 
1041 1039 1037 1043 1044 1046 1048 1052 1049 
1051 1053 1059 1057 1056 1054 1055 1050 1058 
1061 1065 1066 1068 1062 1060 1070 1071 1069 
1072 1064 1063 1067 1073 1075 1078 1076 1077 
1085 1074 1082 1081 1084 1083 1080 1079 1092 
1094 1096 1091 1088 1089 1090 1097 1098 1087 
1095 1093 1086 1105 1108 1103 1099 1109 1107 
1101 1110 1104 1102 1106 1123 1111 1117 1100 
1114 1122 1119 1118 1124 1116 1120 1121 1131 
1112 1135 1113 1115 1137 1126 1128 1130 1129 
1133 1132 1127 1136 1125 1134 1144 1149 1145 
1141 1146 1139 1147 1142 1140 1143 
type 1 844 int
1 1 1 1 1 1 1 1 1 
1 1 1 1 1 1 1 1 1 
1 1 1 1 1 1 1 1 1 
1 1 1 1 1 1 1 1 1 
1 1 1 1 1 1 1 1 1 
1 1 1 1 1 1 1 1 1 
1 1 1 1 1 1 1 1 1 
1 1 1 1 1 1 1 1 1 
1 1 1 1 1 1 1 1 1 
1 1 1 1 1 1 1 1 1 
1 1 1 1 1 1 1 1 1 
1 1 1 1 1 1 1 1 1 
1 1 1 1 1 1 1 1 1 
1 1 1 1 1 1 1 1 1 
1 1 1 1 1 1 1 1 1 
1 1 1 1 1 1 1 1 1 
1 1 1 1 1 1 1 1 1 
1 1 1 1 1 1 1 1 1 
1 1 1 1 1 1 1 1 1 
1 1 1 1 1 1 1 1 1 
1 1 1 1 1 1 1 1 1 
1 1 1 1 1 1 1 1 1 
1 1 1 1 1 1 1 1 1 
1 1 1 1 1 1 1 1 1 
1 1 1 1 1 1 1 1 1 
1 1 1 1 1 1 1 1 1 
1 1 1 1 1 1 1 1 1 
1 1 1 1 1 1 1 1 1 
1 1 1 1 1 1 1 1 1 
1 1 1 1 1 1 1 1 1 
1 1 1 1 1 1 1 1 1 
1 1 1 1 1 1 1 1 1 
1 1 1 1 1 1 1 1 1 
1 1 1 1 1 1 1 1 1 
1 1 1 1 1 1 1 1 1 
1 1 1 1 1 1 1 1 1 
1 1 1 1 1 1 1 1 1 
1 1 1 1 1 1 1 1 1 
1 1 1 1 1 1 1 1 1 
1 1 1 1 1 1 1 1 1 
1 1 1 1 1 1 1 1 1 
1 1 1 1 1 1 1 1 1 
1 1 1 1 1 1 1 1 1 
1 1 1 1 1 1 1 1 1 
1 1 1 1 1 1 1 1 1 
1 1 1 1 1 1 1 1 1 
1 1 1 1 1 1 1 1 1 
1 1 1 1 1 1 1 1 1 
1 1 1 1 1 1 1 1 1 
1 1 1 1 1 1 1 1 1 
1 1 1 1 1 1 1 1 1 
1 1 1 1 1 1 1 1 1 
1 1 1 1 1 1 1 1 1 
1 1 1 1 1 1 1 1 1 
1 1 1 1 1 1 1 1 1 
1 1 1 1 1 1 1 1 1 
1 1 1 1 1 1 1 1 1 
1 1 1 1 1 1 1 1 1 
1 1 1 1 1 1 1 1 1 
1 1 1 1 1 1 1 1 1 
1 1 1 1 1 1 1 1 1 
1 1 1 1 1 1 1 1 1 
1 1 1 1 1 1 1 1 1 
1 1 1 1 1 1 1 1 1 
1 1 1 1 1 1 1 1 1 
1 1 1 1 1 1 1 1 1 
1 1 1 1 1 1 1 1 1 
1 1 1 1 1 1 1 1 1 
1 1 1 1 1 1 1 1 1 
1 1 1 1 1 1 1 1 1 
1 1 1 1 1 1 1 1 1 
1 1 1 1 1 1 1 1 1 
1 1 1 1 1 1 1 1 1 
1 1 1 1 1 1 1 1 1 
1 1 1 1 1 1 1 1 1 
1 1 1 1 1 1 1 1 1 
1 1 1 1 1 1 1 1 1 
1 1 1 1 1 1 1 1 1 
1 1 1 1 1 1 1 1 1 
1 1 1 1 1 1 1 1 1 
1 1 1 1 1 1 1 1 1 
1 1 1 1 1 1 1 1 1 
1 1 1 1 1 1 1 1 1 
1 1 1 1 1 1 1 1 1 
1 1 1 1 1 1 1 1 1 
1 1 1 1 1 1 1 1 1 
1 1 1 1 1 1 1 1 1 
1 1 1 1 1 1 1 1 1 
1 1 1 1 1 1 1 1 1 
1 1 1 1 1 1 1 1 1 
1 1 1 1 1 1 1 1 1 
1 1 1 1 1 1 1 1 1 
1 1 1 1 1 1 1 1 1 
1 1 1 1 1 1 1 
i 3 844 int
0 0 0 0 0 0 0 0 0 
0 0 0 0 0 0 0 0 0 
0 0 0 0 0 0 0 0 0 
0 0 0 0 0 0 0 0 0 
0 0 0 0 0 0 0 0 0 
0 0 0 0 0 0 0 0 0 
0 0 0 0 0 0 0 0 0 
0 0 0 0 0 0 0 0 0 
0 0 0 0 0 0 0 0 0 
0 0 0 0 0 0 0 0 0 
0 0 0 0 0 0 0 0 0 
0 0 0 0 0 0 0 0 0 
0 0 0 0 0 0 0 0 0 
0 0 0 0 0 0 0 0 0 
0 0 0 0 0 0 0 0 0 
0 0 0 0 0 0 0 0 0 
0 0 0 0 0 0 0 0 0 
0 0 0 0 0 0 0 0 0 
0 0 0 0 0 0 0 0 0 
0 0 0 0 0 0 0 0 0 
0 0 0 0 0 0 0 0 0 
0 0 0 0 0 0 0 0 0 
0 0 0 0 0 0 0 0 0 
0 0 0 0 0 0 0 0 0 
0 0 0 0 0 0 0 0 0 
0 0 0 0 0 0 0 0 0 
0 0 0 0 0 0 0 0 0 
0 0 0 0 0 0 0 0 0 
0 0 0 0 0 0 0 0 0 
0 0 0 0 0 0 0 0 0 
0 0 0 0 0 0 0 0 0 
0 0 0 0 0 0 0 0 0 
0 0 0 0 0 0 0 0 0 
0 0 0 0 0 0 0 0 0 
0 0 0 0 0 0 0 0 0 
0 0 0 0 0 0 0 0 0 
0 0 0 0 0 0 0 0 0 
0 0 0 0 0 0 0 0 0 
0 0 0 0 0 0 0 0 0 
0 0 0 0 0 0 0 0 0 
0 0 0 0 0 0 0 0 0 
0 0 0 0 0 0 0 0 0 
0 0 0 0 0 0 0 0 0 
0 0 0 0 0 0 0 0 0 
0 0 0 0 0 0 0 0 0 
0 0 0 0 0 0 0 0 0 
0 0 0 0 0 0 0 0 0 
0 0 0 0 0 0 0 0 0 
0 0 0 0 0 0 0 0 0 
0 0 0 0 0 0 0 0 0 
0 0 0 0 0 0 0 0 0 
0 0 0 0 0 0 0 0 0 
0 0 0 0 0 0 0 0 0 
0 0 0 0 0 0 0 0 0 
0 0 0 0 0 0 0 0 0 
0 0 0 0 0 0 0 0 0 
0 0 0 0 0 0 0 0 0 
0 0 0 0 0 0 0 0 0 
0 0 0 0 0 0 0 0 0 
0 0 0 0 0 0 0 0 0 
0 0 0 0 0 0 0 0 0 
0 0 0 0 0 0 0 0 0 
0 0 0 0 0 0 0 0 0 
0 0 0 0 0 0 0 0 0 
0 0 0 0 0 0 0 0 0 
0 0 0 0 0 0 0 0 0 
0 0 0 0 0 0 0 0 0 
0 0 0 0 0 0 0 0 0 
0 0 0 0 0 0 0 0 0 
0 0 0 0 0 0 0 0 0 
0 0 0 0 0 0 0 0 0 
0 0 0 0 0 0 0 0 0 
0 0 0 0 0 0 0 0 0 
0 0 0 0 0 0 0 0 0 
0 0 0 0 0 0 0 0 0 
0 0 0 0 0 0 0 0 0 
0 0 0 0 0 0 0 0 0 
0 0 0 0 0 0 0 0 0 
0 0 0 0 0 0 0 0 0 
0 0 0 0 0 0 0 0 0 
0 0 0 0 0 0 0 0 0 
0 0 0 0 0 0 0 0 0 
0 0 0 0 0 0 0 0 0 
0 0 0 0 0 0 0 0 0 
0 0 0 0 0 0 0 0 0 
0 0 0 0 0 0 0 0 0 
0 0 0 0 0 0 0 0 0 
0 0 0 0 0 0 0 0 0 
0 0 0 0 0 0 0 0 0 
0 0 0 0 0 0 0 0 0 
0 0 0 0 0 0 0 0 0 
0 0 0 0 0 0 0 0 0 
0 0 0 0 0 0 0 0 0 
0 0 0 0 0 0 0 0 0 
0 0 0 0 0 0 0 0 0 
0 0 0 0 0 0 0 0 0 
0 0 0 0 0 0 0 0 0 
0 0 0 0 0 0 0 0 0 
0 0 0 0 0 0 0 0 0 
0 0 0 0 0 0 0 0 0 
0 0 0 0 0 0 0 0 0 
0 0 0 0 0 0 0 0 0 
0 0 0 0 0 0 0 0 0 
0 0 0 0 0 0 0 0 0 
0 0 0 0 0 0 0 0 0 
0 0 0 0 0 0 0 0 0 
0 0 0 0 0 0 0 0 0 
0 0 0 0 0 0 0 0 0 
0 0 0 0 0 0 0 0 0 
0 0 0 0 0 0 0 0 0 
0 0 0 0 0 0 0 0 0 
0 0 0 0 0 0 0 0 0 
0 0 0 0 0 0 0 0 0 
0 0 0 0 0 0 0 0 0 
0 0 0 0 0 0 0 0 0 
0 0 0 0 0 0 0 0 0 
0 0 0 0 0 0 0 0 0 
0 0 0 0 0 0 0 0 0 
0 0 0 0 0 0 0 0 0 
0 0 0 0 0 0 0 0 0 
0 0 0 0 0 0 0 0 0 
0 0 0 0 0 0 0 0 0 
0 0 0 0 0 0 0 0 0 
0 0 0 0 0 0 0 0 0 
0 0 0 0 0 0 0 0 0 
0 0 0 0 0 0 0 0 0 
0 0 0 0 0 0 0 0 0 
0 0 0 0 0 0 0 0 0 
0 0 0 0 0 0 0 0 0 
0 0 0 0 0 0 0 0 0 
0 0 0 0 0 0 0 0 0 
0 0 0 0 0 0 0 0 0 
0 0 0 0 0 0 0 0 0 
0 0 0 0 0 0 0 0 0 
0 0 0 0 0 0 0 0 0 
0 0 0 0 0 0 0 0 0 
0 0 0 0 0 0 0 0 0 
0 0 0 0 0 0 0 0 0 
0 0 0 0 0 0 0 0 0 
0 0 0 0 0 0 0 0 0 
0 0 0 0 0 0 0 0 0 
0 0 0 0 0 0 0 0 0 
0 0 0 0 0 0 0 0 0 
0 0 0 0 0 0 0 0 0 
0 0 0 0 0 0 0 0 0 
0 0 0 0 0 0 0 0 0 
0 0 0 0 0 0 0 0 0 
0 0 0 0 0 0 0 0 0 
0 0 0 0 0 0 0 0 0 
0 0 0 0 0 0 0 0 0 
0 0 0 0 0 0 0 0 0 
0 0 0 0 0 0 0 0 0 
0 0 0 0 0 0 0 0 0 
0 0 0 0 0 0 0 0 0 
0 0 0 0 0 0 0 0 0 
0 0 0 0 0 0 0 0 0 
0 0 0 0 0 0 0 0 0 
0 0 0 0 0 0 0 0 0 
0 0 0 0 0 0 0 0 0 
0 0 0 0 0 0 0 0 0 
0 0 0 0 0 0 0 0 0 
0 0 0 0 0 0 0 0 0 
0 0 0 0 0 0 0 0 0 
0 0 0 0 0 0 0 0 0 
0 0 0 0 0 0 0 0 0 
0 0 0 0 0 0 0 0 0 
0 0 0 0 0 0 0 0 0 
0 0 0 0 0 0 0 0 0 
0 0 0 0 0 0 0 0 0 
0 0 0 0 0 0 0 0 0 
0 0 0 0 0 0 0 0 0 
0 0 0 0 0 0 0 0 0 
0 0 0 0 0 0 0 0 0 
0 0 0 0 0 0 0 0 0 
0 0 0 0 0 0 0 0 0 
0 0 0 0 0 0 0 0 0 
0 0 0 0 0 0 0 0 0 
0 0 0 0 0 0 0 0 0 
0 0 0 0 0 0 0 0 0 
0 0 0 0 0 0 0 0 0 
0 0 0 0 0 0 0 0 0 
0 0 0 0 0 0 0 0 0 
0 0 0 0 0 0 0 0 0 
0 0 0 0 0 0 0 0 0 
0 0 0 0 0 0 0 0 0 
0 0 0 0 0 0 0 0 0 
0 0 0 0 0 0 0 0 0 
0 0 0 0 0 0 0 0 0 
0 0 0 0 0 0 0 0 0 
0 0 0 0 0 0 0 0 0 
0 0 0 0 0 0 0 0 0 
0 0 0 0 0 0 0 0 0 
0 0 0 0 0 0 0 0 0 
0 0 0 0 0 0 0 0 0 
0 0 0 0 0 0 0 0 0 
0 0 0 0 0 0 0 0 0 
0 0 0 0 0 0 0 0 0 
0 0 0 0 0 0 0 0 0 
0 0 0 0 0 0 0 0 0 
0 0 0 0 0 0 0 0 0 
0 0 0 0 0 0 0 0 0 
0 0 0 0 0 0 0 0 0 
0 0 0 0 0 0 0 0 0 
0 0 0 0 0 0 0 0 0 
0 0 0 0 0 0 0 0 0 
0 0 0 0 0 0 0 0 0 
0 0 0 0 0 0 0 0 0 
0 0 0 0 0 0 0 0 0 
0 0 0 0 0 0 0 0 0 
0 0 0 0 0 0 0 0 0 
0 0 0 0 0 0 0 0 0 
0 0 0 0 0 0 0 0 0 
0 0 0 0 0 0 0 0 0 
0 0 0 0 0 0 0 0 0 
0 0 0 0 0 0 0 0 0 
0 0 0 0 0 0 0 0 0 
0 0 0 0 0 0 0 0 0 
0 0 0 0 0 0 0 0 0 
0 0 0 0 0 0 0 0 0 
0 0 0 0 0 0 0 0 0 
0 0 0 0 0 0 0 0 0 
0 0 0 0 0 0 0 0 0 
0 0 0 0 0 0 0 0 0 
0 0 0 0 0 0 0 0 0 
0 0 0 0 0 0 0 0 0 
0 0 0 0 0 0 0 0 0 
0 0 0 0 0 0 0 0 0 
0 0 0 0 0 0 0 0 0 
0 0 0 0 0 0 0 0 0 
0 0 0 0 0 0 0 0 0 
0 0 0 0 0 0 0 0 0 
0 0 0 0 0 0 0 0 0 
0 0 0 0 0 0 0 0 0 
0 0 0 0 0 0 0 0 0 
0 0 0 0 0 0 0 0 0 
0 0 0 0 0 0 0 0 0 
0 0 0 0 0 0 0 0 0 
0 0 0 0 0 0 0 0 0 
0 0 0 0 0 0 0 0 0 
0 0 0 0 0 0 0 0 0 
0 0 0 0 0 0 0 0 0 
0 0 0 0 0 0 0 0 0 
0 0 0 0 0 0 0 0 0 
0 0 0 0 0 0 0 0 0 
0 0 0 0 0 0 0 0 0 
0 0 0 0 0 0 0 0 0 
0 0 0 0 0 0 0 0 0 
0 0 0 0 0 0 0 0 0 
0 0 0 0 0 0 0 0 0 
0 0 0 0 0 0 0 0 0 
0 0 0 0 0 0 0 0 0 
0 0 0 0 0 0 0 0 0 
0 0 0 0 0 0 0 0 0 
0 0 0 0 0 0 0 0 0 
0 0 0 0 0 0 0 0 0 
0 0 0 0 0 0 0 0 0 
0 0 0 0 0 0 0 0 0 
0 0 0 0 0 0 0 0 0 
0 0 0 0 0 0 0 0 0 
0 0 0 0 0 0 0 0 0 
0 0 0 0 0 0 0 0 0 
0 0 0 0 0 0 0 0 0 
0 0 0 0 0 0 0 0 0 
0 0 0 0 0 0 0 0 0 
0 0 0 0 0 0 0 0 0 
0 0 0 0 0 0 0 0 0 
0 0 0 0 0 0 0 0 0 
0 0 0 0 0 0 0 0 0 
0 0 0 0 0 0 0 0 0 
0 0 0 0 0 0 0 0 0 
0 0 0 0 0 0 0 0 0 
0 0 0 0 0 0 0 0 0 
0 0 0 0 0 0 0 0 0 
0 0 0 0 0 0 0 0 0 
0 0 0 0 0 0 0 0 0 
0 0 0 0 0 0 0 0 0 
0 0 0 0 0 0 0 0 0 
0 0 0 0 0 0 0 0 0 
0 0 0 0 0 0 0 0 0 
0 0 0 0 0 0 0 0 0 
0 0 0 0 0 0 0 0 0 
0 0 0 
v 3 844 double
-0.910458 0.0476936 -0.381175 -0.775988 0.222219 -0.443019 -0.965256 0.160288 -0.344824 
-0.999873 0.175613 -0.386389 -1.06094 -0.0753973 -1.79501 -0.662324 -0.0890583 -1.85545 
-1.06876 -0.0317377 -1.81524 -0.905419 -0.00201857 -1.96708 -0.937475 0.00207854 -1.86532 
-0.934124 -0.0763373 -1.78538 -1.01427 0.0382412 -1.79437 -0.951298 0.0493814 -1.78832 
-0.854114 0.0622507 -1.77539 -1.13952 -0.0299208 -1.82486 -0.968472 -0.0763169 -1.76524 
-1.13238 0.0979883 -1.72368 -0.819169 0.0463987 -1.71736 -1.15658 -0.0380869 -1.76978 
-1.02909 -0.0378351 -1.7203 -1.22148 -0.159503 -1.83117 -0.851679 0.0719661 -1.70406 
-1.13236 0.123357 -1.7511 -1.08619 -0.00364078 -1.71901 -1.15438 -0.0265574 -1.69417 
-0.843059 0.0562793 -1.68295 -0.998687 0.0478707 -1.70826 -1.13637 -0.0599097 -1.68619 
-0.942141 -0.0142409 -1.68338 -1.16801 -0.120018 -1.67712 -0.815334 0.0221386 -1.68164 
-1.24978 -0.162412 -1.72051 -1.00077 -0.0351216 -1.67238 -0.964021 0.000529939 -1.65025 
-0.944002 -0.00261316 -1.64308 -1.16109 0.0929289 -1.65174 -0.815737 0.027157 -1.62823 
-0.828483 -0.171817 -1.64805 -1.0895 0.0920915 -1.64958 -1.1395 0.122618 -1.62463 
-0.897555 -0.0365125 -1.58377 -1.17575 -0.099752 -1.64236 -1.10036 0.0211727 -1.60118 
-1.11361 0.013639 -1.5861 -0.69999 -0.0786664 -1.54483 -1.0939 0.0603272 -1.54864 
-1.21554 -0.15841 -1.54026 -1.10431 0.0400387 -1.5688 -0.96795 0.0281804 -1.5517 
-0.95652 -0.0325731 -1.55151 -1.16571 -0.288707 -1.61683 -1.11442 -0.0942779 -1.54081 
-1.14008 0.0783112 -1.42458 -1.02054 -0.000885128 -1.48906 -1.09948 0.050905 -1.44979 
-1.0012 -0.00625908 -1.50247 -1.11682 0.0692231 -1.50721 -1.02319 -0.00675124 -1.45339 
-1.03023 -0.0325939 -1.47773 -1.00241 -0.0354454 -1.4704 -1.04336 -0.0159088 -1.44403 
-1.07785 0.00966422 -1.44834 -1.05493 -0.0341769 -1.42824 -1.08108 0.0146906 -1.42123 
-1.17184 0.130419 -1.56462 -0.970163 -0.0787416 -1.39798 -0.927618 -0.0602206 -1.38101 
-0.99094 -0.0206051 -1.49525 -1.17388 0.319776 -1.46064 -1.09945 0.0804293 -1.36155 
-1.07604 0.0646384 -1.36096 -1.15066 0.15227 -1.35325 -1.00281 0.0437341 -1.34247 
-1.26359 0.0641379 -1.39574 -1.04671 0.136552 -1.35034 -1.09474 0.0645417 -1.32697 
-0.932349 -0.0459313 -1.37043 -1.04894 0.0807352 -1.31449 -1.07773 -0.0167849 -1.29299 
-0.978574 0.0524771 -1.29134 -1.05677 -0.0150435 -1.26611 -1.07203 -0.0363971 -1.2954 
-1.13767 0.00659103 -1.25279 -0.931863 0.0771087 -1.20159 -1.03708 -0.0783032 -1.22018 
-1.10363 -0.0237847 -1.2348 -1.08304 -0.0300217 -1.26362 -1.12546 0.0102713 -1.22575 
-0.896679 0.0432258 -1.14442 -1.10963 -0.0591407 -1.17933 -1.08936 -0.0532732 -1.22846 
-1.05888 -0.0450864 -1.23017 -1.28902 -0.0814642 -1.25103 -1.13144 -0.031255 -1.25875 
-0.984536 -0.106928 -1.15299 -1.10887 -0.0363477 -1.18731 -0.976038 -0.00339729 -1.13949 
-1.1835 0.199189 -1.19926 -0.973977 -0.0620074 -1.09109 -1.007 -0.035907 -1.15343 
-0.968014 -0.0189975 -1.12346 -0.964239 0.0279976 -1.09662 -1.31063 -0.0663258 -1.20035 
-1.10426 -0.102396 -1.12923 -0.917413 0.00930895 -1.15492 -0.938959 0.00363326 -1.13054 
-0.989407 -0.0182311 -1.0864 -0.924748 -0.032325 -1.05116 -0.970471 0.0035446 -1.04918 
-0.98199 -0.0516308 -1.07931 -1.03729 0.0749268 -1.06087 -1.18905 -0.0810139 -1.08252 
-1.02291 -0.0295014 -1.09665 -0.956478 0.00383404 -1.02537 -1.06749 -0.0186179 -1.04541 
-1.19872 0.129853 -1.15178 -1.08427 0.0145501 -0.948504 -1.20047 -0.123022 -1.09036 
-1.06557 0.132866 -1.05003 -1.31519 -0.353185 -1.28513 -1.3896 0.106067 -1.15514 
-0.858799 -0.0328401 -0.91269 -0.848479 -0.00715717 -0.962006 -1.04286 0.0226398 -0.88536 
-1.02826 -0.149685 -0.840729 -1.10236 -0.0375367 -0.919689 -0.949705 0.0649625 -0.841437 
-1.07238 0.686387 -1.23251 -1.14674 -0.0522817 -0.863589 -1.09996 0.0665071 -0.908369 
-1.22849 -0.405213 -0.875998 -1.11331 -0.0954678 -0.873923 -1.13792 -0.0900836 -0.807846 
-0.997688 0.0583755 -0.754489 -1.11199 0.086525 -0.729967 -0.949585 0.0400099 -0.677044 
-1.2027 -0.255341 -0.811981 -1.05961 0.0125691 -0.762535 -1.07204 0.128448 -0.649809 
-0.962506 0.0404147 -0.815917 -0.958957 0.0263823 -0.633686 -0.936981 0.122637 -0.796587 
-1.03351 -0.0649104 -0.660056 -1.11591 -0.183349 -0.739699 -1.13712 0.0324697 -0.733852 
-1.09179 -0.013483 -0.558048 -1.10737 -0.0998359 -0.564546 -1.04337 -0.0227587 -0.673869 
-0.916449 0.0788902 -0.567464 -0.983999 -0.00153508 -0.454739 -1.10013 0.119081 -0.601952 
-1.04797 -0.108042 -0.572323 -1.08696 0.02906 -0.556392 -1.33894 0.156295 -0.880954 
-1.01886 -0.0585147 -0.599713 -0.929603 -0.0440289 -0.549495 -0.956295 -0.0831273 -0.554851 
-0.986532 -0.0902538 -0.638888 -1.0891 0.103516 -0.582612 -1.06704 0.0631375 -0.457929 
-1.09844 0.0183118 -0.456405 -0.881636 0.0808546 -0.620128 -0.871481 -0.136639 -0.430469 
-1.11089 -0.130922 -0.556274 -1.00808 0.0148176 -0.465464 -0.924102 -0.0507259 -0.507274 
-1.01457 -0.0107964 -0.51934 -1.2245 -0.151863 -0.692158 -1.07126 0.0467332 -0.624108 
-1.06628 0.0719716 -0.425663 -1.05917 0.072051 -0.434221 -1.08452 0.0680198 -0.45364 
-0.893476 0.0525441 -0.373273 -1.09468 0.0147245 -0.455222 -1.00137 0.0619171 -0.406761 
-0.988703 -0.0511287 -0.42374 -0.985586 -0.0692675 -0.427414 -0.973923 -0.000797317 -0.442949 
-0.900658 0.0044599 -0.374974 -1.09174 0.0550328 -0.424728 -1.023 0.0697011 -0.422672 
-1.03452 -0.0251488 -0.45081 -0.953511 -0.0188217 -0.456225 -0.980564 0.0512248 -0.425201 
-0.890729 -0.0203188 -0.375447 -0.94972 -0.0277118 -0.401624 -0.947764 -0.00056522 -0.399515 
-0.96822 0.00853038 -0.406985 -1.01279 0.0326167 -0.424197 -0.958966 -0.0289359 -0.406214 
-0.985964 0.0183831 -0.388473 -1.01177 -0.142842 -0.438501 -1.06831 -0.0185623 -0.368728 
-1.15883 0.10086 -0.400718 -0.917245 -0.155185 -0.345633 -0.996447 0.0537821 -0.425221 
-0.807367 -0.0844312 -0.330434 -1.12555 0.11765 -0.808858 -0.822797 0.00499377 -0.320154 
-0.948639 0.0391727 -0.397374 -0.941327 0.0697748 -0.393021 -1.12037 0.090608 -0.53521 
-1.05862 0.0186256 -0.4474 -0.971027 0.0438234 -0.413295 -0.972243 0.0742971 -0.412383 
-0.790385 -0.165151 -0.42675 -0.993392 0.00289755 -0.304853 -1.04126 -0.0678094 -0.443729 
-1.04664 -0.139449 -0.451615 -1.29494 -0.0705968 -0.460587 -1.1844 0.166443 -0.548223 
-0.94884 0.0405898 -0.392758 -0.941926 -0.00233301 -0.397455 -0.983973 -0.00624589 -0.376873 
-0.948777 0.00805043 -0.397748 -0.998243 -0.0353195 -0.408812 -1.07893 0.107899 -0.465133 
-1.03495 0.00200545 -0.507879 -0.949971 -0.0702779 -0.396133 -0.931054 -0.18053 -0.400312 
-1.24324 -0.0486225 -0.530197 -0.799238 0.10535 -0.353213 -0.836713 0.107832 -0.369629 
-1.03691 0.100861 -0.452159 -1.00615 -0.0464615 -0.417791 -0.954697 0.0361003 -0.405399 
-0.902997 0.0333291 -0.382947 -0.757606 0.0339599 -0.319564 -0.909086 -0.0205156 -0.369218 
-0.752743 0.138721 -0.355328 -1.04483 0.0806056 -0.443973 -0.830208 -0.0366611 -0.34318 
-0.788392 0.0151247 -0.329234 -1.00618 -0.0695069 -0.395602 -0.944899 -0.00223662 -0.374961 
-1.04632 0.0108728 -0.437972 -1.06034 -0.048665 -0.402048 -0.866421 -0.0147791 -0.362571 
-0.742789 0.129951 -0.332889 -0.864924 0.0495905 -0.398379 -0.961493 0.0133884 -0.406848 
-0.883478 0.0953536 -0.37878 -0.712094 -0.0746031 -0.295919 -0.714633 -0.079563 -0.351619 
-0.899446 0.0778684 -0.374871 -0.71936 0.00351214 -0.289037 -0.744103 -0.00969695 -0.317072 
-0.78855 -0.0770069 -0.325045 -0.747721 0.0182419 -0.314816 -0.690155 0.0200231 -0.295605 
-0.646698 0.0800964 -0.264855 -0.78322 0.0988842 -0.314029 -0.765751 0.0271496 -0.301089 
-1.24252 0.0125784 -0.493831 -0.966437 0.0289017 -0.400117 -0.863631 0.0345943 -0.373927 
-0.766616 -0.0810285 -0.210526 -0.902375 0.0456866 -0.380587 -0.902243 -0.0163915 -0.37794 
-0.881322 0.0358779 -0.371337 -0.767208 0.0141605 -0.310243 -0.764341 -0.00457039 -0.293433 
-0.882241 0.0487344 -0.366204 -0.975712 0.191638 -0.483378 -0.928321 0.0533287 -0.387188 
-0.940725 0.0441023 -0.392729 -1.07171 0.0379623 -0.439383 -0.973429 -0.29585 -0.483735 
-1.21728 -0.0370793 -0.406424 -1.09436 -0.0839577 -0.471044 -0.902486 0.0361419 -0.400645 
-0.903852 -0.0287369 -0.322014 -0.929783 -0.0395117 -0.369238 -0.913546 -0.0451754 -0.360051 
-0.816888 0.00567359 -0.363059 -0.85047 -0.0395011 -0.334768 -1.06429 -0.184401 -0.53632 
-0.839084 0.0182345 -0.358109 -0.831691 0.00886346 -0.348815 -0.852831 0.0177873 -0.360357 
-0.848017 0.113073 -0.356705 -0.855006 0.0564751 -0.35559 -0.954688 0.0800187 -0.396438 
-0.886727 0.064265 -0.365774 -0.951574 0.0892464 -0.380186 -1.03157 -0.0677719 -0.439665 
-1.00684 0.0701246 -0.399201 -0.859509 -0.133076 -0.289997 -0.675521 0.191143 -0.295029 
-1.03294 0.0182571 -0.418556 -0.926677 0.120965 -0.408255 -0.928774 0.107395 -0.398432 
-0.934662 0.124045 -0.397081 -0.870591 0.0106338 -0.362583 -0.866385 0.0901979 -0.358094 
-0.921956 0.273898 -0.325601 -0.981076 -0.00211959 -0.386684 -0.975583 0.0615007 -0.359153 
-0.759416 0.163238 -0.385784 -0.673652 -0.0100791 -0.293571 -1.01742 0.158068 -0.448852 
-1.30762 -0.100605 -0.530251 -0.91244 -0.0477783 -0.371713 -0.795028 -0.0132152 -0.464239 
-0.795797 0.0179207 -0.386768 -0.896784 -0.0136712 -0.568248 -0.809215 0.0476683 -0.345294 
-0.868394 -0.0180335 -0.380859 -0.863367 0.0264736 -0.3704 -0.873197 -0.042565 -0.388586 