# vtk DataFile Version 4.0
Generated by LIGGGHTS
ASCII
DATASET POLYDATA
POINTS 379 float
-0.250218 0.0794645 -0.177482 -0.20956 0.0222784 -0.192573 -0.0776945 -0.0395624 -0.128429 
-0.196023 0.00575915 -0.188616 -0.17872 -0.0257951 -0.178991 -0.180453 -0.00140914 -0.180922 
-0.17598 -0.0286114 -0.17731 -0.175251 0.0300815 -0.176604 -0.159737 -0.0171667 -0.172394 
-0.167465 -0.0101167 -0.171334 -0.16088 -0.0112673 -0.173408 -0.159088 -0.00688614 -0.173003 
-0.153144 -0.00507221 -0.170563 -0.164914 0.0294507 -0.171318 -0.161524 -0.0207144 -0.171613 
-0.152673 -0.0094114 -0.170121 -0.151863 -0.00217604 -0.170055 -0.151851 0.000831235 -0.16997 
-0.150966 0.0153155 -0.167685 -0.142628 -0.00544937 -0.166108 -0.149687 -0.00267204 -0.167247 
-0.142636 0.00130361 -0.165034 -0.143043 0.00583126 -0.166122 -0.172644 -0.0185647 -0.162133 
-0.140427 -0.00390447 -0.162453 -0.137557 0.00799522 -0.162691 -0.127569 0.00549754 -0.159648 
-0.135293 0.0145651 -0.161309 -0.134998 0.0188185 -0.161678 -0.163622 0.0621409 -0.160839 
-0.12006 -0.00352978 -0.156628 -0.124008 -0.00192797 -0.157241 -0.145795 0.00112272 -0.160519 
-0.120978 0.00104756 -0.156807 -0.147096 0.0052064 -0.156919 -0.124796 0.00667601 -0.158435 
-0.130905 0.013734 -0.159686 -0.125298 0.0164912 -0.156971 -0.133457 0.0220017 -0.159065 
-0.139922 -0.0523513 -0.155727 -0.12438 -0.0284244 -0.155928 -0.117905 -0.0060882 -0.154437 
-0.114835 -0.00368195 -0.153421 -0.127409 -0.00342076 -0.152324 -0.116113 -0.00144881 -0.154969 
-0.119136 0.00461666 -0.15624 -0.112909 -0.000254102 -0.15256 -0.144583 0.00415425 -0.155194 
-0.125048 0.00500863 -0.153526 -0.112464 0.00368378 -0.153428 -0.141894 0.0102693 -0.155128 
-0.125151 0.011482 -0.155253 -0.115684 0.0119983 -0.154313 -0.132736 -0.0530974 -0.152547 
-0.112038 -0.00552599 -0.148852 -0.106372 -0.00264961 -0.150773 -0.104997 0.00109975 -0.149193 
-0.131935 0.00993264 -0.152312 -0.117357 0.0397269 -0.15044 -0.127961 0.0494166 -0.15182 
-0.102056 -0.0145411 -0.147353 -0.107467 -0.00981864 -0.15059 -0.125493 0.0028991 -0.142715 
-0.101061 0.00237509 -0.148604 -0.0967351 0.00156886 -0.145704 -0.107274 0.00365423 -0.14669 
-0.103306 0.00757885 -0.148355 -0.0991262 0.00946547 -0.147531 -0.115432 0.0468523 -0.147547 
-0.110712 -0.0441501 -0.145249 -0.0988595 -0.0362197 -0.14256 -0.100888 -0.0279025 -0.145128 
-0.0899377 -0.00651279 -0.14382 -0.107741 -0.00320605 -0.147994 -0.094207 -0.00157378 -0.143528 
-0.112891 0.000201389 -0.147599 -0.104264 0.00364116 -0.143621 -0.094804 0.011209 -0.145112 
-0.108341 0.0318874 -0.148097 -0.109316 -0.0584074 -0.140859 -0.0930599 -0.0330092 -0.140816 
-0.0935984 -0.0260308 -0.143228 -0.0815964 -0.0133291 -0.139927 -0.0962509 -0.0038978 -0.146691 
-0.0852531 -0.00452407 -0.140855 -0.0899096 0.00157365 -0.143711 -0.0800828 0.00832302 -0.13965 
-0.100354 0.0130042 -0.139035 -0.0808711 0.0135819 -0.139522 -0.0853857 -0.0483901 -0.134726 
-0.0783925 -0.0252831 -0.137213 -0.0792603 -0.0209772 -0.138101 -0.071023 -0.0100452 -0.135642 
-0.0902299 -0.0029637 -0.137411 -0.0751052 -0.00596115 -0.13743 -0.082451 -0.0026229 -0.138558 
-0.0943254 -0.00280799 -0.140044 -0.0724125 0.00279296 -0.136505 -0.0827907 0.00241856 -0.138692 
-0.0735418 0.00557317 -0.136926 -0.0781675 0.0119948 -0.138203 -0.0771304 0.0159255 -0.137268 
-0.0782793 0.0212226 -0.137763 -0.0747292 0.0264687 -0.134312 -0.0719247 0.0304694 -0.133568 
-0.0751142 -0.0396334 -0.133078 -0.06546 -0.0263376 -0.131543 -0.0608009 -0.011164 -0.131294 
-0.0944207 -0.00501454 -0.136676 -0.0672709 -0.00599375 -0.133173 -0.0718163 -0.00305569 -0.133842 
-0.0644746 -0.00197788 -0.132035 -0.0666481 0.00128863 -0.134091 -0.0627404 0.00303516 -0.131327 
-0.10037 0.00929501 -0.135285 -0.0933267 0.0127421 -0.139893 -0.0676899 0.0113123 -0.133178 
-0.0730421 0.0139082 -0.135109 -0.0967825 0.0257731 -0.139782 -0.0745076 0.0213982 -0.133965 
-0.0743028 0.0392651 -0.132714 -0.0954681 0.039599 -0.13599 -0.0693787 -0.0484068 -0.128088 
-0.119473 -0.0398193 -0.13175 -0.0578996 -0.0185955 -0.129411 -0.0832482 -0.00878566 -0.135368 
-0.0919163 -0.00477839 -0.134452 -0.0680625 -0.00448794 -0.129474 -0.0537888 -0.00481832 -0.128302 
-0.099963 0.00172874 -0.132581 -0.0590455 0.00763671 -0.129674 -0.0694108 0.0182901 -0.132039 
-0.0769066 -0.00239396 -0.130307 -0.0601964 -0.00791154 -0.1268 -0.0549962 0.011202 -0.127694 
-0.0531842 -0.00971298 -0.128199 -0.0747814 0.00572546 -0.127469 -0.0531036 0.0290947 -0.126033 
-0.0615452 0.0117047 -0.128189 -0.0806937 -0.000169335 -0.127242 -0.0860606 0.00139026 -0.126199 
-0.0486571 0.00754487 -0.126282 -0.0499216 0.0125079 -0.125573 -0.0658278 -0.000267221 -0.12537 
-0.088992 0.00343025 -0.125698 -0.00390427 -0.00527178 0.0413551 -0.0617698 -0.0245154 -0.124923 
-0.0684236 -0.0101413 -0.123788 -0.00937081 0.0258081 0.0427766 -0.0079193 0.0298979 0.047359 
-0.0572991 -0.00420224 -0.121975 -0.0206177 -0.0113305 0.045282 -0.0123384 -0.0119647 0.0452977 
-0.0235714 -0.0119867 0.0501515 -0.029518 -0.0259191 0.0481662 -0.00639582 0.00662071 0.0445118 
-0.0539309 0.0119388 -0.123672 -0.00657095 -0.0222035 0.0460337 -0.00665099 -0.0147089 0.0452177 
-0.0795585 -0.0116305 -0.123203 -0.0410289 -0.0100237 -0.120306 -0.0437302 -0.00583455 -0.123215 
-0.0366199 -0.00626634 -0.121243 -0.0528231 -0.00228606 -0.121413 -0.0310592 -0.00121585 0.0415822 
-0.0327448 -0.000417308 -0.11981 -0.0375476 0.00249212 -0.121816 -0.0184795 -0.0269407 0.0419246 
-0.0104872 0.0175218 0.0457333 -0.0405585 0.00968405 -0.121734 -0.0213451 -0.000776551 0.04768 
-0.0425819 0.0139364 -0.12346 -0.0465128 0.0168584 -0.122289 -0.0521565 0.0249062 -0.123834 
-0.0424718 -0.0436296 -0.118445 -0.0299911 -0.0286371 -0.115242 -0.0467156 -0.022569 -0.119015 
-0.0603431 -0.0241627 -0.116491 -0.0578812 -0.0126517 -0.118757 -0.0342287 -0.012103 -0.117031 
-0.030012 -0.0109967 -0.118349 -0.0719247 -0.00377643 -0.122543 -0.0662799 -0.00874385 -0.117658 
-0.0691946 0.00102355 -0.118943 -0.0537596 0.00233209 -0.115011 -0.03064 0.00317974 -0.117868 
-0.0400206 0.0154162 -0.118904 -0.0652693 0.0145258 -0.115659 -0.0557211 0.0183552 -0.118179 
-0.0339203 0.0191834 -0.119355 -0.0318721 0.0229323 -0.116071 -0.0715243 -0.0337341 -0.113746 
-0.0379787 -0.0204175 -0.116225 -0.0302813 -0.0164921 -0.117478 -0.0551606 -0.0125857 -0.114599 
-0.0275672 -0.0115577 -0.116846 -0.020552 -0.0161847 -0.113941 -0.0599513 -0.00862767 -0.114847 
-0.0293806 -0.00751684 -0.113769 -0.0609077 -0.00142631 -0.116323 -0.0410241 -0.00407512 -0.119027 
-0.0240904 -0.00150344 -0.114854 -0.021089 -0.00716145 -0.114763 -0.0623184 0.0021362 -0.119307 
-0.037769 2.33025e-05 -0.116296 -0.0249176 0.00332925 -0.113287 -0.0306642 0.0120364 -0.112508 
-0.0189283 0.00782459 -0.112417 -0.0460259 0.0122224 -0.113203 -0.0292879 0.0170265 -0.114007 
-0.056822 0.0188706 -0.112722 -0.0585605 0.0234053 -0.114207 -0.022425 0.0264751 -0.112294 
-0.0350206 0.0363891 -0.114428 -0.0274257 0.0301598 -0.109334 -0.0203503 -0.0249714 -0.111607 
-0.0276908 -0.0200945 -0.115072 -0.0227265 -0.019186 -0.112648 -0.0330461 -0.0198233 -0.112375 
-0.0317175 -0.015513 -0.112418 -0.0528023 -0.00822552 -0.111318 -0.0251692 -0.00668538 -0.112171 
-0.0157236 -0.00284535 -0.112619 -0.0205388 0.000347746 -0.113549 -0.0131193 0.0115797 -0.106002 
-0.0494032 0.0140845 -0.109432 -0.0331865 0.0175381 -0.113322 -0.0248081 -0.0564329 -0.107582 
-0.0290094 -0.0261341 -0.104534 -0.0211839 -0.0195301 -0.10349 -0.0427642 -0.0168776 -0.106689 
-0.0326678 -0.014831 -0.10488 -0.013233 -0.0180927 -0.104116 -0.0113791 -0.00558967 -0.106324 
-0.0330382 0.0246036 -0.106546 -0.0290576 0.0251122 -0.105515 -0.00749883 0.0303919 -0.106733 
-0.021613 0.029827 -0.108509 -0.0188965 -0.0283401 -0.101288 -0.024553 -0.0271181 -0.107865 
-0.0286147 -0.0217017 -0.110199 -0.0141804 0.000119446 -0.109581 -0.0533906 0.00265971 -0.103428 
-0.0281913 0.00829422 -0.103489 -0.0270203 0.0119398 -0.101484 -0.0162471 0.0207046 -0.107918 
-0.0199567 0.0232452 -0.100742 -0.0309169 0.0543488 -0.10181 -0.0118725 -0.0300953 -0.105928 
-0.0341703 0.00394934 -0.118917 -0.0142651 0.0081333 -0.110124 -0.0260218 0.0143277 -0.115389 
-0.021978 0.0261292 -0.101054 -0.0192296 0.00543412 -0.110403 -0.00822905 0.00204059 -0.109281 
-0.00188406 -0.0198499 -0.10532 -0.00134368 -0.00658357 -0.106601 -0.00519681 0.0166398 -0.106304 
-0.0312596 -0.0282318 -0.103603 -0.00508252 -0.0028679 -0.105655 -0.0114835 0.00360093 -0.104621 
-0.00736955 0.00915874 -0.10412 -0.0132609 0.017575 -0.102423 -0.03335 -0.0101411 -0.0996135 
-0.0232736 0.0229729 -0.0982529 -0.0181876 -0.028381 -0.0923208 -0.0342247 -0.0119118 -0.0918394 
-0.0327461 -0.00810316 -0.0940397 -0.0202693 -0.00943017 -0.0914125 -0.0228461 0.00943572 -0.0941977 
-0.00273627 0.0326024 -0.0934773 -0.0290573 0.0260911 -0.0875769 -0.0270427 -0.0136491 -0.0858331 
-0.0244054 0.0234551 -0.0851618 -0.0338399 -0.0287184 -0.0804985 -0.0084722 -0.00462009 -0.0804513 
-0.0288682 0.0130299 -0.0808874 -0.00252809 0.0307765 -0.0833332 -0.000691472 0.0332631 -0.0809083 
-0.0252685 -0.0119457 -0.0740227 -0.0309256 0.00918438 -0.0760276 -0.0309119 -0.0207084 -0.0714411 
-0.0304536 -0.0123493 -0.0692417 -0.0272645 0.0231035 -0.0716633 -0.0340111 0.0266228 -0.0660225 
-0.0171117 -0.02331 -0.0640147 -0.0203439 -0.0193455 -0.0613152 -0.014458 -0.0138423 -0.0616548 
-0.00968967 -0.00588877 -0.0613297 -0.0209658 0.00969496 -0.0640157 -0.00730513 0.0257586 -0.061935 
-0.00413281 -0.00792779 -0.0586607 -0.0152744 0.0211746 -0.0591273 -0.0170652 -0.0214262 -0.0532805 
-0.0158837 -0.0171309 -0.0513544 -0.0255762 0.00585265 -0.0525836 -0.0231605 0.0109416 -0.0501109 
-0.0124469 0.0108555 -0.0529261 -0.0306741 -0.0048619 -0.0456705 -0.0148123 0.0147393 -0.044326 
-0.0109595 0.0300204 -0.0456036 -0.0265082 0.034934 -0.0460029 -0.00757771 0.0326856 -0.0435364 
-0.0349344 -0.00127292 -0.0419737 -0.0242978 0.00020127 -0.0398051 -0.0095853 0.0256603 -0.0404048 
-0.0279163 0.0200822 -0.035335 -0.0341543 -0.0265255 -0.032363 -0.0165238 0.0194762 -0.032133 
-0.0196325 0.0295097 -0.0348174 -0.0196571 -0.0325483 -0.0307863 -0.0108823 -0.0240914 -0.0276135 
-0.0208036 0.00162734 -0.0305902 -0.00343388 0.0316676 -0.0299817 -0.0120408 -0.0289279 -0.0239319 
-0.0188893 -0.0164448 -0.0244785 -0.00434932 -0.0129336 -0.0255641 -0.00296015 0.00664907 -0.0253526 
-0.0303622 -0.0214325 -0.0233673 -0.0141191 -0.0138017 -0.0211117 -0.0252225 -0.00395457 -0.0207508 
-0.027048 -0.0348853 -0.0194564 -0.0250889 0.00553727 -0.0165111 -0.0184752 -0.0330418 -0.0143617 
-0.00344499 -0.0220199 -0.0128688 -0.00418171 -0.00447311 -0.0155155 -0.0256427 -0.020268 -0.00956191 
-0.0241229 -0.00156433 -0.00906957 -0.00876558 -0.00149609 -0.0123896 -0.0204765 0.00703928 -0.0088195 
-0.0346461 0.030431 -0.00987111 -0.00515441 0.000607433 -0.00631223 -0.0293092 0.0266251 -0.00870827 
-0.0318304 -0.0270523 -0.00303457 -0.0259008 0.01415 -0.00479891 -0.0288367 0.021507 -0.00267405 
-0.0118162 -0.0172965 -0.00106684 -0.0107355 -0.0111371 -0.000925511 -0.0208274 -0.00751444 0.0018098 
-0.0344795 0.0306845 0.00111386 -0.00974267 0.00154746 0.00430322 -0.0310028 0.00427373 0.00551082 
-0.0224693 0.00786627 0.00372337 -0.026015 0.0234799 0.00379767 -0.0292124 -0.00857811 0.00967185 
-0.0282123 0.0119421 0.00857827 -0.00304149 0.01634 0.00880133 -0.0145727 0.0196597 0.00892029 
-0.00482279 0.0319284 0.00756547 -0.0258414 -0.0246135 0.0122314 -0.000558622 -0.0225112 0.0132207 
-0.0120659 -0.000928847 0.0107351 -0.00423369 0.00513081 0.0106453 -0.0230867 -0.0218823 0.0162471 
-0.00209585 -0.0253397 0.0190345 -0.0250933 5.52728e-05 0.0183118 -0.0131172 0.0174599 0.0200206 
-0.0054599 -0.0346412 0.0226394 -0.00205387 -0.0284209 0.0236586 -0.0318304 -0.0245036 0.0224675 
-0.00797106 -0.0174946 0.0253918 -0.00209743 -0.0197497 0.0279981 -0.00426265 -0.00806252 0.0259848 
-0.0153561 0.00561382 0.0261805 -0.029449 0.0175582 0.0264282 -0.0135917 0.0274385 0.0280426 
-0.032644 -0.0063197 0.029415 -0.00532413 0.00347482 0.0306188 -0.00315638 0.017114 0.0319607 
-0.0215522 -0.0188967 0.03471 -0.0196875 0.000933277 0.0332879 -0.00977287 0.0109784 0.0340315 
-0.0243451 0.0195956 0.033939 -0.0168696 0.0180085 0.0354845 -0.0135751 0.0240704 0.0351105 
-0.0164984 0.0336061 0.0349463 -0.00832892 -0.0172649 0.037621 -0.00858455 -0.00884288 0.0405009 
-0.0162721 0.0114791 0.040133 
VERTICES 379 758
1 0 
1 1 
1 2 
1 3 
1 4 
1 5 
1 6 
1 7 
1 8 
1 9 
1 10 
1 11 
1 12 
1 13 
1 14 
1 15 
1 16 
1 17 
1 18 
1 19 
1 20 
1 21 
1 22 
1 23 
1 24 
1 25 
1 26 
1 27 
1 28 
1 29 
1 30 
1 31 
1 32 
1 33 
1 34 
1 35 
1 36 
1 37 
1 38 
1 39 
1 40 
1 41 
1 42 
1 43 
1 44 
1 45 
1 46 
1 47 
1 48 
1 49 
1 50 
1 51 
1 52 
1 53 
1 54 
1 55 
1 56 
1 57 
1 58 
1 59 
1 60 
1 61 
1 62 
1 63 
1 64 
1 65 
1 66 
1 67 
1 68 
1 69 
1 70 
1 71 
1 72 
1 73 
1 74 
1 75 
1 76 
1 77 
1 78 
1 79 
1 80 
1 81 
1 82 
1 83 
1 84 
1 85 
1 86 
1 87 
1 88 
1 89 
1 90 
1 91 
1 92 
1 93 
1 94 
1 95 
1 96 
1 97 
1 98 
1 99 
1 100 
1 101 
1 102 
1 103 
1 104 
1 105 
1 106 
1 107 
1 108 
1 109 
1 110 
1 111 
1 112 
1 113 
1 114 
1 115 
1 116 
1 117 
1 118 
1 119 
1 120 
1 121 
1 122 
1 123 
1 124 
1 125 
1 126 
1 127 
1 128 
1 129 
1 130 
1 131 
1 132 
1 133 
1 134 
1 135 
1 136 
1 137 
1 138 
1 139 
1 140 
1 141 
1 142 
1 143 
1 144 
1 145 
1 146 
1 147 
1 148 
1 149 
1 150 
1 151 
1 152 
1 153 
1 154 
1 155 
1 156 
1 157 
1 158 
1 159 
1 160 
1 161 
1 162 
1 163 
1 164 
1 165 
1 166 
1 167 
1 168 
1 169 
1 170 
1 171 
1 172 
1 173 
1 174 
1 175 
1 176 
1 177 
1 178 
1 179 
1 180 
1 181 
1 182 
1 183 
1 184 
1 185 
1 186 
1 187 
1 188 
1 189 
1 190 
1 191 
1 192 
1 193 
1 194 
1 195 
1 196 
1 197 
1 198 
1 199 
1 200 
1 201 
1 202 
1 203 
1 204 
1 205 
1 206 
1 207 
1 208 
1 209 
1 210 
1 211 
1 212 
1 213 
1 214 
1 215 
1 216 
1 217 
1 218 
1 219 
1 220 
1 221 
1 222 
1 223 
1 224 
1 225 
1 226 
1 227 
1 228 
1 229 
1 230 
1 231 
1 232 
1 233 
1 234 
1 235 
1 236 
1 237 
1 238 
1 239 
1 240 
1 241 
1 242 
1 243 
1 244 
1 245 
1 246 
1 247 
1 248 
1 249 
1 250 
1 251 
1 252 
1 253 
1 254 
1 255 
1 256 
1 257 
1 258 
1 259 
1 260 
1 261 
1 262 
1 263 
1 264 
1 265 
1 266 
1 267 
1 268 
1 269 
1 270 
1 271 
1 272 
1 273 
1 274 
1 275 
1 276 
1 277 
1 278 
1 279 
1 280 
1 281 
1 282 
1 283 
1 284 
1 285 
1 286 
1 287 
1 288 
1 289 
1 290 
1 291 
1 292 
1 293 
1 294 
1 295 
1 296 
1 297 
1 298 
1 299 
1 300 
1 301 
1 302 
1 303 
1 304 
1 305 
1 306 
1 307 
1 308 
1 309 
1 310 
1 311 
1 312 
1 313 
1 314 
1 315 
1 316 
1 317 
1 318 
1 319 
1 320 
1 321 
1 322 
1 323 
1 324 
1 325 
1 326 
1 327 
1 328 
1 329 
1 330 
1 331 
1 332 
1 333 
1 334 
1 335 
1 336 
1 337 
1 338 
1 339 
1 340 
1 341 
1 342 
1 343 
1 344 
1 345 
1 346 
1 347 
1 348 
1 349 
1 350 
1 351 
1 352 
1 353 
1 354 
1 355 
1 356 
1 357 
1 358 
1 359 
1 360 
1 361 
1 362 
1 363 
1 364 
1 365 
1 366 
1 367 
1 368 
1 369 
1 370 
1 371 
1 372 
1 373 
1 374 
1 375 
1 376 
1 377 
1 378 

POINT_DATA 379
FIELD FieldData 7
id 1 379 int
24 56 163 9 30 16 34 31 32 
19 6 10 23 26 3 33 7 22 
1 13 60 5 21 2 54 28 42 
40 57 68 50 29 38 45 11 87 
48 14 41 108 58 15 69 88 18 
85 51 36 46 49 27 101 43 99 
52 12 17 79 44 8 4 83 53 
35 64 70 65 73 59 92 76 67 
47 84 96 63 72 55 93 20 104 
62 94 100 39 156 71 122 82 81 
147 74 25 109 158 174 61 121 166 
150 118 95 37 66 113 110 120 144 
125 78 89 128 97 105 116 91 187 
90 75 154 124 130 86 126 175 111 
112 136 123 142 80 98 103 141 127 
170 148 157 140 114 162 155 164 77 
133 376 167 177 375 378 153 379 367 
370 374 377 161 368 373 132 193 117 
106 146 371 160 172 355 369 102 372 
131 178 138 119 179 204 129 165 169 
212 134 176 145 198 184 199 182 183 
207 214 137 191 149 192 168 226 135 
227 139 152 220 219 143 115 197 208 
223 196 206 181 200 151 216 232 225 
205 217 171 189 186 221 235 190 236 
185 180 107 211 218 188 202 195 239 
209 222 173 215 224 230 228 229 159 
203 194 234 213 201 237 233 238 231 
210 247 249 251 248 241 245 250 242 
240 246 252 243 262 265 258 259 244 
256 257 253 260 255 264 254 263 261 
272 271 270 268 269 274 278 275 276 
277 266 273 286 267 289 279 287 284 
288 285 290 280 282 283 281 302 297 
294 300 298 299 295 292 293 291 313 
314 296 301 315 312 308 309 311 310 
303 306 307 305 304 321 327 326 324 
328 322 319 317 318 320 325 334 335 
316 323 333 340 330 329 332 337 336 
331 339 338 344 345 352 346 350 347 
351 343 349 341 342 353 348 366 363 
365 357 358 354 356 362 359 364 360 
361 
type 1 379 int
1 1 1 1 1 1 1 1 1 
1 1 1 1 1 1 1 1 1 
1 1 1 1 1 1 1 1 1 
1 1 1 1 1 1 1 1 1 
1 1 1 1 1 1 1 1 1 
1 1 1 1 1 1 1 1 1 
1 1 1 1 1 1 1 1 1 
1 1 1 1 1 1 1 1 1 
1 1 1 1 1 1 1 1 1 
1 1 1 1 1 1 1 1 1 
1 1 1 1 1 1 1 1 1 
1 1 1 1 1 1 1 1 1 
1 1 1 1 1 1 1 1 1 
1 1 1 1 1 1 1 1 1 
1 1 1 1 1 1 1 1 1 
1 1 1 1 1 1 1 1 1 
1 1 1 1 1 1 1 1 1 
1 1 1 1 1 1 1 1 1 
1 1 1 1 1 1 1 1 1 
1 1 1 1 1 1 1 1 1 
1 1 1 1 1 1 1 1 1 
1 1 1 1 1 1 1 1 1 
1 1 1 1 1 1 1 1 1 
1 1 1 1 1 1 1 1 1 
1 1 1 1 1 1 1 1 1 
1 1 1 1 1 1 1 1 1 
1 1 1 1 1 1 1 1 1 
1 1 1 1 1 1 1 1 1 
1 1 1 1 1 1 1 1 1 
1 1 1 1 1 1 1 1 1 
1 1 1 1 1 1 1 1 1 
1 1 1 1 1 1 1 1 1 
1 1 1 1 1 1 1 1 1 
1 1 1 1 1 1 1 1 1 
1 1 1 1 1 1 1 1 1 
1 1 1 1 1 1 1 1 1 
1 1 1 1 1 1 1 1 1 
1 1 1 1 1 1 1 1 1 
1 1 1 1 1 1 1 1 1 
1 1 1 1 1 1 1 1 1 
1 1 1 1 1 1 1 1 1 
1 1 1 1 1 1 1 1 1 
1 
i 3 379 int
0 0 0 0 0 0 0 0 0 
0 0 0 0 0 0 0 0 0 
0 0 0 0 0 0 0 0 0 
0 0 0 0 0 0 0 0 0 
0 0 0 0 0 0 0 0 0 
0 0 0 0 0 0 0 0 0 
0 0 0 0 0 0 0 0 0 
0 0 0 0 0 0 0 0 0 
0 0 0 0 0 0 0 0 0 
0 0 0 0 0 0 0 0 0 
0 0 0 0 0 0 0 0 0 
0 0 0 0 0 0 0 0 0 
0 0 0 0 0 0 0 0 0 
0 0 0 0 0 0 0 0 0 
0 0 0 0 0 0 0 0 0 
0 0 0 0 0 0 0 0 0 
0 0 0 0 0 0 0 0 0 
0 0 0 0 0 0 0 0 0 
0 0 0 0 0 0 0 0 0 
0 0 0 0 0 0 0 0 0 
0 0 0 0 0 0 0 0 0 
0 0 0 0 0 0 0 0 0 
0 0 0 0 0 0 0 0 0 
0 0 0 0 0 0 0 0 0 
0 0 0 0 0 0 0 0 0 
0 0 0 0 0 0 0 0 0 
0 0 0 0 0 0 0 0 0 
0 0 0 0 0 0 0 0 0 
0 0 0 0 0 0 0 0 0 
0 0 0 0 0 0 0 0 0 
0 0 0 0 0 0 0 0 0 
0 0 0 0 0 0 0 0 0 
0 0 0 0 0 0 0 0 0 
0 0 0 0 0 0 0 0 0 
0 0 0 0 0 0 0 0 0 
0 0 0 0 0 0 0 0 0 
0 0 0 0 0 0 0 0 0 
0 0 0 0 0 0 0 0 0 
0 0 0 0 0 0 0 0 0 
0 0 0 0 0 0 0 0 0 
0 0 0 0 0 0 0 0 0 
0 0 0 0 0 0 0 0 0 
0 0 0 0 0 0 0 0 0 
0 0 0 0 0 0 0 0 0 
0 0 0 0 0 0 0 0 0 
0 0 0 0 0 0 0 0 0 
0 0 0 0 0 0 0 0 0 
0 0 0 0 0 0 0 0 0 
0 0 0 0 0 0 0 0 0 
0 0 0 0 0 0 0 0 0 
0 0 0 0 0 0 0 0 0 
0 0 0 0 0 0 0 0 0 
0 0 0 0 0 0 0 0 0 
0 0 0 0 0 0 0 0 0 
0 0 0 0 0 0 0 0 0 
0 0 0 0 0 0 0 0 0 
0 0 0 0 0 0 0 0 0 
0 0 0 0 0 0 0 0 0 
0 0 0 0 0 0 0 0 0 
0 0 0 0 0 0 0 0 0 
0 0 0 0 0 0 0 0 0 
0 0 0 0 0 0 0 0 0 
0 0 0 0 0 0 0 0 0 
0 0 0 0 0 0 0 0 0 
0 0 0 0 0 0 0 0 0 
0 0 0 0 0 0 0 0 0 
0 0 0 0 0 0 0 0 0 
0 0 0 0 0 0 0 0 0 
0 0 0 0 0 0 0 0 0 
0 0 0 0 0 0 0 0 0 
0 0 0 0 0 0 0 0 0 
0 0 0 0 0 0 0 0 0 
0 0 0 0 0 0 0 0 0 
0 0 0 0 0 0 0 0 0 
0 0 0 0 0 0 0 0 0 
0 0 0 0 0 0 0 0 0 
0 0 0 0 0 0 0 0 0 
0 0 0 0 0 0 0 0 0 
0 0 0 0 0 0 0 0 0 
0 0 0 0 0 0 0 0 0 
0 0 0 0 0 0 0 0 0 
0 0 0 0 0 0 0 0 0 
0 0 0 0 0 0 0 0 0 
0 0 0 0 0 0 0 0 0 
0 0 0 0 0 0 0 0 0 
0 0 0 0 0 0 0 0 0 
0 0 0 0 0 0 0 0 0 
0 0 0 0 0 0 0 0 0 
0 0 0 0 0 0 0 0 0 
0 0 0 0 0 0 0 0 0 
0 0 0 0 0 0 0 0 0 
0 0 0 0 0 0 0 0 0 
0 0 0 0 0 0 0 0 0 
0 0 0 0 0 0 0 0 0 
0 0 0 0 0 0 0 0 0 
0 0 0 0 0 0 0 0 0 
0 0 0 0 0 0 0 0 0 
0 0 0 0 0 0 0 0 0 
0 0 0 0 0 0 0 0 0 
0 0 0 0 0 0 0 0 0 
0 0 0 0 0 0 0 0 0 
0 0 0 0 0 0 0 0 0 
0 0 0 0 0 0 0 0 0 
0 0 0 0 0 0 0 0 0 
0 0 0 0 0 0 0 0 0 
0 0 0 0 0 0 0 0 0 
0 0 0 0 0 0 0 0 0 
0 0 0 0 0 0 0 0 0 
0 0 0 0 0 0 0 0 0 
0 0 0 0 0 0 0 0 0 
0 0 0 0 0 0 0 0 0 
0 0 0 0 0 0 0 0 0 
0 0 0 0 0 0 0 0 0 
0 0 0 0 0 0 0 0 0 
0 0 0 0 0 0 0 0 0 
0 0 0 0 0 0 0 0 0 
0 0 0 0 0 0 0 0 0 
0 0 0 0 0 0 0 0 0 
0 0 0 0 0 0 0 0 0 
0 0 0 0 0 0 0 0 0 
0 0 0 0 0 0 0 0 0 
0 0 0 0 0 0 0 0 0 
0 0 0 0 0 0 0 0 0 
0 0 0 0 0 0 0 0 0 
0 0 0 0 0 0 0 0 0 
0 0 0 0 0 0 0 0 0 
0 0 0 
v 3 379 double
-1.42355 0.13411 -0.195371 -1.37716 -0.117833 -0.612524 -0.83354 -0.361594 -0.469579 
-1.19237 -0.128366 -0.49814 -1.00898 0.00436965 -0.408695 -1.08845 0.00307436 -0.455606 
-1.14037 -0.270758 -0.436648 -1.06348 0.17851 -0.403401 -0.91943 0.134214 -0.422431 
-1.2611 -0.066365 -0.424626 -0.749014 -0.102391 -0.360378 -0.704825 -0.0727737 -0.297394 
-0.733813 -0.0148871 -0.313072 -1.03899 0.195575 -0.391866 -1.0068 0.141348 -0.455656 
-0.899411 -0.123549 -0.398392 -0.805324 0.0684809 -0.337127 -0.904866 0.0839391 -0.439305 
-0.889905 0.0539547 -0.369075 -0.757486 0.0238135 -0.32094 -0.97997 -0.0569937 -0.434458 
-0.900372 0.109565 -0.365803 -0.882306 0.0645845 -0.377258 -1.03755 -0.225566 -0.508477 
-0.825407 0.114043 -0.283473 -0.83652 0.171843 -0.338658 -0.700297 0.00448734 -0.286887 
-0.757009 -0.0451104 -0.298434 -0.754082 -0.00623291 -0.320215 -1.08378 0.120212 -0.355887 
-0.618839 0.00531852 -0.262083 -0.638741 -0.0168943 -0.273571 -1.13035 0.0573879 -0.64209 
-0.732675 0.0458191 -0.321829 -0.869505 0.20013 -0.452758 -0.607387 -0.0806958 -0.254466 
-0.727678 0.177525 -0.395198 -0.66969 0.0251741 -0.262019 -0.833388 0.106892 -0.3229 
-1.04134 -0.181958 -0.368329 -0.978623 -0.291553 -0.343314 -0.601199 -0.0431654 -0.331488 
-0.637868 0.03519 -0.299645 -0.92258 -0.0894552 -0.263341 -0.622411 0.0310344 -0.261651 
-0.586676 0.241491 -0.193991 -0.645515 -0.0567414 -0.0916903 -0.883982 -0.0821962 -0.301649 
-0.712772 -0.0170001 -0.158388 -0.735972 -0.0151467 -0.312574 -1.09976 0.114049 -0.360387 
-0.830307 0.0334876 -0.286325 -0.729741 0.0207531 -0.307067 -0.975644 -0.105901 -0.341269 
-0.685059 -0.0480296 -0.243119 -0.548128 -0.104149 -0.141533 -0.627176 -0.0743669 -0.21962 
-1.09893 -0.212237 -0.341577 -0.720446 -0.0367228 -0.307616 -0.797936 0.065969 -0.302182 
-0.796553 -0.0772851 -0.331929 -0.898606 -0.372025 -0.300954 -0.789769 -0.0534328 0.175109 
-0.708942 -0.02063 -0.297242 -0.678317 -0.00110339 -0.28623 -0.813627 -0.0807273 -0.418177 
-0.549713 -0.0895374 -0.236132 -0.639177 -0.13546 -0.281845 -0.749465 0.165443 -0.243411 
-0.870929 -0.000799475 -0.359264 -0.756673 -0.136135 -0.285306 -0.800777 -0.147839 -0.303632 
-0.653599 -0.0321269 -0.275544 -1.03213 -0.350966 -0.207601 -0.675997 -0.021562 0.030104 
-0.885494 0.00974176 0.0583546 -1.0148 0.0439145 -0.45033 -0.674664 0.00346109 -0.359597 
-0.805773 -0.0533643 -0.214138 -0.731636 0.0279877 -0.305663 -0.750912 -0.154567 -0.283681 
-0.768264 -0.287594 -0.607235 -0.606606 -0.0843786 -0.249617 -0.74768 0.111183 -0.362255 
-0.746978 -0.153303 -0.308363 -0.607394 0.0253007 -0.775374 -0.690884 0.114247 -0.291672 
-0.967222 0.0163124 -0.186284 -0.547949 -0.0476702 -0.233195 -0.65351 -0.348336 -0.166649 
-0.817949 0.160505 -0.361591 -0.635458 -0.047954 -0.263589 -0.600741 0.0415448 -0.254351 
-0.707783 0.115205 -0.246486 -0.655023 -0.0281593 -0.249736 -0.640909 -0.151306 -0.342694 
-0.738886 -0.290825 -0.639913 -0.589872 0.0418699 -0.229045 -0.924853 -0.0778232 -0.589708 
-0.623111 0.00656143 -0.265088 -0.552578 0.281755 -0.159061 -0.657532 -0.0428858 -0.449006 
-0.703075 0.0110583 -0.301181 -0.401632 0.0324951 -0.164543 -0.355006 0.120623 -0.129643 
-0.470878 -0.0987256 -0.164651 -0.616078 -0.157038 -0.263574 -0.49877 0.0458553 -0.211995 
-0.748674 0.25198 -0.795766 -0.591736 0.0804636 -0.256522 -0.553898 -0.144085 -0.536481 
-0.569066 0.0469827 -0.289554 -0.44805 -0.0146898 -0.202889 -0.546483 0.0722056 -0.228741 
-0.697265 -0.187622 -0.663671 -0.713811 -0.0898236 -0.868361 -0.551947 -0.196403 -0.457717 
-0.56161 -0.10916 -0.187526 -0.698765 0.416094 -0.906927 -0.681203 -0.0502015 -0.276234 
-0.58897 0.372877 -0.146124 -0.866966 0.0983837 -0.688555 -0.540406 -0.13079 -0.178908 
-1.03618 -0.43509 -0.56198 -0.70357 -0.0241395 -0.294776 -0.694099 0.0796093 -0.775226 
-0.701829 0.0565464 -0.651941 -0.787678 0.0534487 -0.255286 -0.435598 -0.000365127 -0.243606 
-0.856526 0.0923144 -0.48378 -0.621653 -0.0315088 -0.240324 -0.474629 0.166401 -0.601654 
-0.778763 -0.160764 -0.60183 -0.542914 0.242394 -0.245424 -0.441704 -0.0307807 -0.153266 
-0.379847 0.230831 -0.226795 -0.879891 0.228258 -0.551268 -0.586404 -0.0351073 -0.242069 
-0.837835 0.0738409 -0.721365 -0.790828 0.278762 -0.64626 -0.852857 -0.129779 -0.441184 
-0.578749 0.0566022 -0.160116 -0.625534 -0.122868 -0.273813 -0.774557 0.0466027 -0.209932 
-0.729379 -0.109927 -0.479452 0 0 -1.08147 -0.761135 0.0815401 -0.354422 
-0.890587 0.29075 -0.270508 0 0 -1.06852 0 0 -1.02556 
-0.662004 0.109338 -0.088365 0 0 -1.04527 0 0 -1.04508 
0 0 -1 0 0 -1.01781 0 0 -1.05243 
-0.622131 -0.163491 -0.240084 0 0 -1.03821 0 0 -1.04586 
-0.963723 0.268565 -0.290827 -0.304751 0.199527 -0.0675584 -0.424843 0.138591 -0.187852 
-0.198621 0.264547 -0.0851973 -0.723647 0.456217 -0.1726 0 0 -1.07941 
-0.350736 0.00961212 -0.146738 -0.421931 0.00942303 -0.153352 0 0 -1.07627 
0 0 -1.04105 -0.471937 0.0531305 -0.200881 0 0 -1.02251 
-0.493393 0.0549931 -0.210045 -0.5384 0.0244608 -0.472623 -0.665899 -0.0878805 -0.35636 
-0.367914 -0.0813006 -0.127459 -0.051507 0.000713183 -0.0148882 -0.629556 0.205163 -0.165455 
-0.488742 -0.117456 -0.224293 -0.552847 0.0213578 -0.387197 -0.0301784 0.167061 -0.353534 
-0.24927 0.0403364 -0.0928055 -0.721012 0.264699 -0.569439 -0.832266 -0.179886 -0.286995 
-0.749636 0.177467 -0.443383 -0.758237 0.0215414 -0.0139984 0.0378816 0.140702 -0.598857 
-0.942729 0.245077 -0.482993 -0.720465 -0.294153 -0.156673 -0.552884 0.338637 -0.307544 
-0.419738 -0.527094 -0.232622 -0.443503 -0.396643 -0.211059 -0.718017 -0.258545 -0.221236 
-0.492995 0.117643 -0.249727 -0.448924 0.250973 -0.576312 -0.904227 0.0323918 -0.136959 
-0.20121 0.0474467 -0.0616563 -0.234398 0.348144 -0.285926 -0.48143 0.00189296 -0.28703 
-0.822252 0.0490181 -0.0220289 -0.673532 0.284254 -0.49614 -0.564397 -0.0160026 -0.574883 
-0.623274 0.217461 -0.129766 -0.594461 -0.083719 -0.233273 -0.720871 0.257066 -0.653776 
-0.461292 -0.264809 -0.322078 -0.128686 0.0338538 -0.0279041 -0.581831 -0.151805 -0.119316 
-0.228661 -0.37619 -0.0679519 -0.874506 -0.348042 -0.203963 -0.743202 0.0174627 -0.207422 
-0.717043 -0.319756 -0.188474 -0.720911 -0.321481 -0.108399 -0.353499 0.058238 -0.160226 
-0.628509 0.306556 -0.00504993 -0.700108 -0.328583 0.147892 -0.452716 0.385906 -0.0424053 
-0.478665 0.279651 -0.457778 -0.555171 0.369368 -0.462938 -0.260541 -0.354865 -0.261792 
0.00868736 -0.284983 -0.192976 -0.747568 0.139546 -0.159924 -0.58344 0.0222803 -0.170694 
-0.429565 -0.143054 0.0158648 -0.586619 -0.00531262 -0.182637 -0.70979 -0.145812 0.199423 
-0.720821 -0.261927 -0.22414 -0.516135 -0.217682 -0.480146 -0.225526 -0.155906 -0.0331472 
-0.700245 0.288104 0.0287236 -0.71625 0.26295 0.0324316 -0.721806 0.26499 -0.191478 
-0.718322 0.128345 0.0189317 0.0377387 -0.335671 0.142848 -0.735902 0.106645 0.196775 
-0.721182 -0.262058 0.01 -0.718563 -0.261107 0.0274246 -0.171005 0.0371615 -0.0928015 
-0.646212 -0.201169 -0.171768 -0.744531 0.256881 -0.120143 -0.848607 0.0147376 0.0184988 
-0.509134 -0.0465487 -0.292546 -0.0625074 0.0617315 -0.653816 -0.588376 -0.269288 -0.239699 
-0.733449 -0.171302 -0.0375576 -0.707116 -0.181681 -0.0874425 -0.738288 -0.172433 0.197116 
-0.292243 -0.308517 -0.348898 -0.62777 0.377698 -0.166854 -0.56642 0.231735 0.229942 
-0.494428 0.167883 -1.77777 -0.74686 -0.0167998 0.248169 -0.748781 -0.135245 0.254159 
-0.112685 0.668014 -1.31359 -0.230335 0.735075 -0.499901 -0.715154 0.015313 0.00560319 
-0.668234 0.192312 0.144618 -0.188808 0.0273614 -0.875559 -0.739864 -0.172801 0.280461 
0 0 -2.00342 0 0 -2.01342 0 0 -2.00842 
0 0 -2.00597 0 0 -1.99763 0 0 -1.9838 
-0.160204 -0.158954 -1.60498 0 0 -1.9474 0 0 -1.94495 
0 0 -1.95603 0 0 -1.94279 0 0 -1.95682 
0 0 -1.95319 0 0 -1.92337 0 0 -1.91444 
0 0 -1.91101 0 0 -1.88687 0 0 -1.88668 
0 0 -1.88893 0 0 -1.90159 0 0 -1.88903 
0 0 -1.85293 0 0 -1.86353 0 0 -1.8392 
0 0 -1.82742 0 0 -1.84037 0 0 -1.81006 
0 0 -1.79917 0 0 -1.78436 0 0 -1.78622 
0 0 -1.78446 0 0 -1.79917 0 0 -1.78779 
0 0 -1.76974 0 0 -1.77229 0 0 -1.73962 
0 0 -1.72874 0 0 -1.7357 0 0 -1.72167 
0 0 -1.73766 0 0 -1.69617 0 0 -1.68842 
0 0 -1.69577 0 0 -1.69813 0 0 -1.68381 
0 0 -1.67468 0 0 -1.66193 0 0 -1.66546 
0 0 -1.63534 0 0 -1.61739 0 0 -1.61602 
0 0 -1.63221 0 0 -1.60778 0 0 -1.58835 
0 0 -1.6066 0 0 -1.60287 0 0 -1.5654 
0 0 -1.56883 0 0 -1.5756 0 0 -1.57433 
0 0 -1.56187 0 0 -1.54764 0 0 -1.54539 
0 0 -1.53715 0 0 -1.51821 0 0 -1.50428 
0 0 -1.49447 0 0 -1.51174 0 0 -1.4726 
0 0 -1.46936 0 0 -1.49133 0 0 -1.46769 
0 0 -1.47466 0 0 -1.45082 0 0 -1.46691 
0 0 -1.42845 0 0 -1.44052 0 0 -1.426 
0 0 -1.41491 0 0 -1.41393 0 0 -1.3948 
0 0 -1.39971 0 0 -1.37715 0 0 -1.36851 
0 0 -1.38127 0 0 -1.38078 0 0 -1.3384 
0 0 -1.34634 0 0 -1.34477 0 0 -1.34389 
0 0 -1.3537 0 0 -1.31946 0 0 -1.31211 
0 0 -1.33055 0 0 -1.33123 0 0 -1.28925 
0 0 -1.26786 0 0 -1.27345 0 0 -1.26021 
0 0 -1.23971 0 0 -1.23157 0 0 -1.24108 
0 0 -1.21773 0 0 -1.19654 0 0 -1.21293 
0 0 -1.21136 0 0 -1.2093 0 0 -1.19615 
0 0 -1.18487 0 0 -1.17486 0 0 -1.16358 
0 0 -1.14014 0 0 -1.1523 0 0 -1.14602 
0 0 -1.14681 0 0 -1.13347 0 0 -1.1367 
0 0 -1.13817 0 0 -1.11483 0 0 -1.08922 
0 0 -1.09256 
f 3 379 double
0 0 -0.000346714 0 0 -0.000346714 0 0 -0.000346714 
-0.000109582 3.91908e-06 0.000206062 0 0 -0.000346714 -0.000440378 1.97413e-05 -0.000103235 
-0.000286835 0.000545846 0.00580299 -8.47024e-05 -4.1378e-05 -3.87515e-05 0 0 -0.000346714 
0 0 -0.000346714 0 0 -0.000346714 -8.92867e-05 1.18879e-05 -3.88773e-05 
-9.07652e-05 1.20815e-05 -3.58715e-05 -0.000383751 -0.000177133 -0.000211263 -2.97459e-05 0.00150141 0.00213136 
-0.000629887 9.52914e-05 0.00507047 0 0 -0.000346714 0 0 -0.000346714 
0 0 -0.00160516 0 0 -0.000346714 0 0 -0.000346714 
-0.000394464 -3.64418e-05 -0.000187489 0 0 -0.000346714 0 0 -0.00160516 
0 0 -0.00160516 -0.000279314 -3.01496e-05 -0.000387697 -8.66157e-05 -1.36234e-05 -3.63677e-05 
-0.00167521 -0.000276206 -0.000541807 0 0 -0.000346714 -5.91015e-05 -0.000102055 -8.38258e-06 
0.000906185 -0.000368098 -0.00116429 -0.000411927 4.20495e-06 -0.000184528 0 0 -0.00160516 
0 0 -0.000346714 0 0 -0.000346714 2.79153e-05 -5.35263e-05 4.75157e-05 
0 0 -0.000346714 -0.00275642 -3.8953e-05 0.00352067 0 0 -0.00160516 
9.7089e-05 -6.0679e-05 -0.000548694 3.38562e-05 -2.95622e-05 -0.000387105 2.90585e-05 -5.58662e-05 -0.00150281 
0 0 -0.000346714 0 0 -0.000346714 -8.84502e-05 2.48366e-08 -3.7157e-05 
0 0 -0.000346714 0.00605491 -0.000564094 -0.0150987 0 0 -0.000346714 