# vtk DataFile Version 4.0
Generated by LIGGGHTS
ASCII
DATASET POLYDATA
POINTS 748 float
-0.200696 -0.00353707 -0.19057 -0.493496 -0.0117087 -0.398117 -0.490564 0.0241111 -0.398554 
-0.469423 0.0164464 -0.392172 -0.474996 -0.0280252 -0.389425 -0.486793 0.024276 -0.386261 
-0.482197 0.0131682 -0.385723 -0.453588 -0.00728934 -0.380782 -0.472708 0.00876156 -0.378622 
-0.466764 -0.00463231 -0.377283 -0.467461 -0.00641279 -0.369674 -0.479243 -0.0370253 -0.366625 
-0.465699 0.0269032 -0.360998 -0.46718 0.0341381 -0.362241 -0.457504 0.00496003 -0.360276 
-0.459766 0.00910553 -0.357306 -0.447986 0.0151109 -0.360314 -0.45876 0.0605762 -0.354998 
-0.447337 -0.0125654 -0.351513 -0.450899 -0.00541403 -0.35084 -0.461169 0.0100276 -0.351567 
-0.446068 -0.00241023 -0.348195 -0.451863 -0.00269311 -0.34074 -0.441229 0.000233951 -0.339401 
-0.439215 -0.0313181 -0.337422 -0.436941 -0.00207946 -0.334083 -0.437613 0.0177609 -0.33339 
-0.456428 -0.0416315 -0.326714 -0.421393 -0.00513565 -0.324563 -0.417611 0.00349262 -0.320609 
-0.42828 -0.0122577 -0.320503 -0.434551 -0.00690127 -0.319978 -0.407735 -0.0125045 -0.314948 
-0.421064 -0.00238596 -0.316027 -0.416209 -0.00253837 -0.313511 -0.399763 -0.0113413 -0.310512 
-0.415321 0.00437034 -0.312351 -0.424309 0.0100306 -0.313611 -0.412591 -0.00259985 -0.305307 
-0.408439 0.00498111 -0.303941 -0.424899 0.0322285 -0.306206 -0.403648 -0.00480476 -0.298812 
-0.409992 0.0140475 -0.299549 -0.409538 -0.0151354 -0.298391 -0.40008 -0.0155621 -0.296113 
-0.402203 0.0170572 -0.297314 -0.402753 -0.014749 -0.292087 -0.40534 -0.00952838 -0.292365 
-0.397786 -0.00339776 -0.293862 -0.385781 -0.00249743 -0.293809 -0.396388 0.00289554 -0.293559 
-0.379785 -0.000516662 -0.289067 -0.3919 0.00852067 -0.2903 -0.392375 -0.0106853 -0.285857 
-0.391204 -0.00660537 -0.287251 -0.387965 0.0156231 -0.28575 -0.399682 0.0335404 -0.285099 
-0.385214 0.00612921 -0.283779 -0.383333 0.00364209 -0.2833 -0.381957 -0.0129492 -0.278709 
-0.383613 -0.00214245 -0.278778 -0.379047 0.000833163 -0.280362 -0.380913 -0.0277768 -0.271791 
-0.372201 0.00557492 -0.271999 -0.374986 0.0111994 -0.273047 -0.373995 0.0165267 -0.272049 
-0.369104 -0.0195262 -0.267112 -0.364449 -0.00967418 -0.268787 -0.364012 -0.00561642 -0.266473 
-0.36183 -0.0147361 -0.26259 -0.362126 -0.00406063 -0.262654 -0.370133 0.0227453 -0.265485 
-0.358166 0.00722364 -0.259624 -0.358059 -0.0221887 -0.25751 -0.354965 -0.0112105 -0.256978 
-0.349846 0.00498652 -0.258021 -0.34924 0.0126938 -0.255302 -0.35167 0.0175279 -0.255623 
-0.364644 -0.0361862 -0.252981 -0.355931 -0.0343312 -0.252249 -0.351966 -0.0227943 -0.253336 
-0.348271 -0.0162227 -0.252927 -0.34843 -0.00906651 -0.254076 -0.344207 -0.00821826 -0.252546 
-0.342855 -0.00426191 -0.252384 -0.348248 0.000144899 -0.254151 -0.343596 0.00422091 -0.251648 
-0.352917 -0.0320042 -0.250427 -0.335087 -0.0153922 -0.247502 -0.335589 -0.00601015 -0.248275 
-0.335943 -0.00305042 -0.248551 -0.335904 0.00424517 -0.247234 -0.334856 -0.0218143 -0.245279 
-0.331602 -0.0102703 -0.245589 -0.333258 -0.00499649 -0.246577 -0.330608 -0.00592671 -0.245115 
-0.331359 -0.000507833 -0.246296 -0.32848 0.000613391 -0.244812 -0.328346 0.00859449 -0.244237 
-0.331303 0.0123856 -0.245434 -0.328456 0.0116932 -0.244621 -0.330063 0.0149737 -0.244363 
-0.332909 0.0195708 -0.244834 -0.331152 0.0219602 -0.243577 -0.341031 0.0298465 -0.245533 
-0.325551 -0.0231345 -0.240217 -0.336152 -0.0204811 -0.241468 -0.329001 -0.0197473 -0.24272 
-0.324422 -0.00365783 -0.241921 -0.319074 -0.00486326 -0.240435 -0.317305 -0.000421056 -0.239926 
-0.32291 0.00120623 -0.242232 -0.325667 0.00725466 -0.243151 -0.325253 0.0102258 -0.242624 
-0.320331 0.00698643 -0.240774 -0.325745 0.025216 -0.240293 -0.342135 0.041956 -0.241539 
-0.323793 -0.0259517 -0.238752 -0.317855 -0.0118728 -0.239372 -0.315947 -0.00402192 -0.239224 
-0.309266 -0.00140175 -0.236498 -0.315193 0.00081858 -0.237938 -0.31325 0.0113944 -0.23643 
-0.330654 0.0383297 -0.237771 -0.321359 -0.0379493 -0.233865 -0.316966 -0.0239129 -0.235714 
-0.31234 -0.0218605 -0.235465 -0.324812 -0.0175095 -0.23422 -0.310605 -0.0178127 -0.235456 
-0.305634 -0.0185718 -0.233298 -0.31393 -0.0150682 -0.23634 -0.307012 -0.0118774 -0.234828 
-0.31227 0.00149436 -0.23506 -0.301485 0.00188822 -0.233155 -0.307035 0.00811703 -0.235103 
-0.306968 -0.0141782 -0.231352 -0.299832 0.0106761 -0.230815 -0.299811 0.0146341 -0.229748 
-0.298936 0.0185341 -0.229284 -0.323887 0.042535 -0.231666 -0.305792 -0.0340083 -0.22913 
-0.286206 -0.011254 -0.226183 -0.290093 -0.00106658 -0.227333 -0.287553 0.0129066 -0.226574 
-0.293533 0.0172485 -0.227283 -0.289619 -0.0237943 -0.224556 -0.285555 -0.00587509 -0.225254 
-0.279922 -0.00670365 -0.222851 -0.285657 0.00627516 -0.224706 -0.279233 0.00572682 -0.222456 
-0.282559 0.00854792 -0.221713 -0.284369 0.0130855 -0.224158 -0.30068 0.0368468 -0.225114 
-0.297417 -0.0435265 -0.220797 -0.278758 -0.0302136 -0.2195 -0.27325 -0.0169302 -0.220112 
-0.274184 -0.0109581 -0.220076 -0.269952 -0.00385106 -0.218749 -0.272849 -0.000105906 -0.221176 
-0.265157 -0.000264465 -0.217937 -0.269948 0.00277669 -0.21873 -0.267971 0.0122743 -0.218474 
-0.27603 0.0139802 -0.221576 -0.270381 0.0143256 -0.219168 -0.283492 0.0297394 -0.221509 
-0.283903 0.0317889 -0.218805 -0.296099 0.0409273 -0.221602 -0.27069 -0.0223532 -0.218017 
-0.263262 -0.0169835 -0.215872 -0.262203 -0.0134404 -0.21586 -0.261004 -0.00972673 -0.215779 
-0.264539 0.00356834 -0.216412 -0.265928 0.00701143 -0.217904 -0.284418 0.0425335 -0.217294 
-0.268984 -0.0381023 -0.211812 -0.255982 -0.0104844 -0.212503 -0.255095 -0.00656529 -0.213445 
-0.253585 -0.000155162 -0.213016 -0.255356 0.0048846 -0.212464 -0.259698 0.0106361 -0.214028 
-0.25337 0.0127039 -0.211967 -0.257642 0.0150564 -0.212595 -0.260402 0.0217202 -0.213824 
-0.250131 -0.007377 -0.210229 -0.245349 -0.00774076 -0.208187 -0.242826 -0.000948548 -0.20739 
-0.250073 0.00565431 -0.210191 -0.243982 0.00943524 -0.208575 -0.266931 0.0442254 -0.209622 
-0.265205 0.0414455 -0.208181 -0.251283 -0.0373436 -0.204881 -0.247536 -0.0340124 -0.205393 
-0.240414 -0.0106448 -0.206934 -0.237231 -0.0092504 -0.205618 -0.238959 -5.15766e-05 -0.206797 
-0.233491 0.00345171 -0.204384 -0.23799 0.00850181 -0.206093 -0.236426 0.0142235 -0.204884 
-0.237573 0.0189215 -0.204723 -0.246705 -0.0415386 -0.202741 -0.236046 -0.0249105 -0.201828 
-0.228238 -0.00978125 -0.201797 -0.234957 -0.0049256 -0.203893 -0.22884 -0.0056733 -0.20238 
-0.224754 -0.0067596 -0.200601 -0.231549 0.000358838 -0.202563 -0.230697 0.00566199 -0.203147 
-0.224522 0.00453377 -0.200544 -0.233433 0.0164737 -0.202216 -0.230271 0.0226579 -0.201159 
-0.241627 0.0310246 -0.203888 -0.255299 0.0521859 -0.201341 -0.22904 -0.0245459 -0.19902 
-0.222691 -0.0233103 -0.19773 -0.221953 -0.0111992 -0.199 -0.217077 -0.00293627 -0.19755 
-0.221195 0.00231771 -0.199204 -0.221895 0.00646627 -0.199416 -0.223953 0.00887294 -0.20003 
-0.21902 0.0122296 -0.197767 -0.223269 0.0239974 -0.197113 -0.229207 0.0285304 -0.199376 
-0.227041 0.0317463 -0.197681 -0.232066 0.0381453 -0.197997 -0.234075 0.0407625 -0.19783 
-0.239477 -0.0492796 -0.196629 -0.216472 -0.0217218 -0.195264 -0.21649 -0.0158455 -0.195211 
-0.209942 -0.00886281 -0.194227 -0.21386 0.0124176 -0.194471 -0.209518 0.0136305 -0.193613 
-0.21517 0.0243832 -0.194487 -0.219955 0.0254896 -0.19513 -0.21267 -0.0255011 -0.192955 
-0.209869 -0.0184 -0.192112 -0.205507 -0.0172395 -0.191459 -0.214374 -0.0126056 -0.192047 
-0.20723 -0.0118253 -0.192755 -0.204629 -0.0100598 -0.191864 -0.204928 0.00064356 -0.191295 
-0.207103 0.00572908 -0.193239 -0.223008 0.0148487 -0.193789 -0.211547 0.0209971 -0.192518 
-0.208668 0.0264415 -0.191264 -0.211613 0.0295611 -0.191802 -0.212394 -0.00347497 -0.187848 
-0.241826 0.0303665 -0.190393 -0.204802 0.0318457 -0.188367 -0.205828 0.0353209 -0.188139 
-0.20248 -0.0133518 -0.189545 -0.200984 0.0295291 -0.187436 -0.052305 0.000217358 -0.12697 
-0.195954 -0.0161647 -0.187562 -0.0741937 0.00134842 -0.126976 -0.196606 -0.0110246 -0.18824 
-0.197689 -0.00707751 -0.187854 -0.197774 -0.00322855 -0.189289 -0.195783 -0.00109881 -0.188409 
-0.192067 0.0117101 -0.186429 -0.0459601 0.0045148 -0.125258 -0.19715 -0.0406697 -0.182842 
-0.195452 -0.0275738 -0.185595 -0.190496 -0.0224903 -0.184511 -0.192022 -0.0144418 -0.186098 
-0.186756 -0.0150071 -0.183797 -0.195864 -0.0131658 -0.184746 -0.190572 -0.0115945 -0.185839 
-0.186186 -0.0120086 -0.183975 -0.188138 -0.00715143 -0.184106 -0.189517 -0.000215873 -0.185871 
-0.184389 -0.00326612 -0.183603 -0.19232 0.00344059 -0.185981 -0.183007 0.00873181 -0.182871 
-0.184149 0.0115303 -0.183094 -0.190663 0.0173217 -0.184208 -0.190044 0.0238768 -0.184035 
-0.197606 0.0269755 -0.185443 -0.187213 -0.0297636 -0.180378 -0.187433 -0.026334 -0.182501 
-0.181576 -0.0187584 -0.181273 -0.183428 -0.0148302 -0.181419 -0.177632 -0.00891743 -0.180633 
-0.175322 -0.0114229 -0.179395 -0.184397 -0.00707728 -0.181635 -0.182479 -0.00380021 -0.180031 
-0.179508 0.000770529 -0.180562 -0.179092 0.00477188 -0.181546 -0.180099 0.00797228 -0.181701 
-0.178549 0.0115289 -0.179652 -0.178599 0.016512 -0.179248 -0.179971 0.0258495 -0.179403 
-0.189258 -0.0419642 -0.179191 -0.177897 -0.0289962 -0.177981 -0.175687 -0.0233522 -0.178232 
-0.175869 -0.0171601 -0.178053 -0.182161 -0.0120859 -0.176439 -0.170588 -0.00590134 -0.177782 
-0.17324 -0.00332005 -0.178957 -0.164896 -0.00274458 -0.175519 -0.19809 0.00228236 -0.18011 
-0.170996 -0.000209584 -0.176998 -0.175347 0.00491593 -0.178854 -0.173752 0.0118814 -0.178671 
-0.168004 0.012452 -0.176216 -0.176946 0.0224529 -0.177719 -0.171235 0.0215749 -0.176604 
-0.161167 -0.0171606 -0.173011 -0.167767 -0.0120636 -0.175171 -0.162944 -0.0135262 -0.17306 
-0.169836 -0.006578 -0.17491 -0.15988 -0.00258366 -0.172283 -0.158987 0.00201894 -0.17292 
-0.16025 0.00531494 -0.173537 -0.165326 0.0203995 -0.174341 -0.167057 0.0262623 -0.172834 
-0.16866 0.0309805 -0.172599 -0.173144 -0.0419316 -0.171605 -0.167634 -0.0265085 -0.172456 
[...]
POINT_DATA 748
FIELD FieldData 7
id 1 748 int
172 7 1 22 33 5 21 142 60 
6 23 58 28 11 13 41 36 38 
10 57 92 8 130 40 79 101 48 
126 54 42 67 4 63 14 46 53 
44 59 49 29 75 83 93 76 88 
43 104 162 20 122 62 134 45 15 
50 72 114 148 87 18 100 85 163 
70 51 71 132 181 69 116 17 177 
154 61 192 158 174 37 81 147 52 
120 166 47 84 64 77 39 109 12 
35 65 74 94 156 96 145 55 73 
133 95 98 82 233 91 112 245 138 
167 111 188 157 25 118 150 222 146 
137 200 182 196 136 244 124 231 176 
110 103 125 86 175 187 304 143 274 
89 66 270 80 139 159 186 90 257 
105 203 78 128 281 127 234 227 140 
268 232 144 204 228 246 209 153 135 
113 97 198 327 216 171 194 224 170 
202 121 201 165 191 123 185 141 178 
277 215 161 117 102 243 164 259 265 
238 230 287 211 218 155 239 262 131 
206 290 129 119 152 252 302 282 180 
260 151 271 199 183 205 275 219 149 
314 220 309 272 300 278 210 223 258 
347 295 214 208 279 289 288 342 337 
189 212 254 251 250 190 236 293 318 
184 299 372 292 301 325 115 311 527 
221 454 106 193 284 207 160 524 320 
286 315 249 107 317 169 225 217 308 
168 307 310 197 266 323 256 355 312 
313 229 346 378 235 344 240 345 333 
269 267 324 348 365 413 179 297 247 
379 285 341 280 305 261 322 242 213 
321 253 241 359 331 226 283 352 370 
319 255 381 237 373 303 338 358 248 
316 273 329 291 380 264 389 392 332 
350 405 403 425 328 374 376 391 335 
330 349 326 367 384 354 334 173 411 
294 336 393 371 296 396 386 394 415 
306 395 414 406 388 276 402 377 429 
400 298 362 441 432 409 385 428 382 
442 339 407 369 383 356 404 360 430 
448 387 426 457 399 447 419 401 463 
398 437 351 343 375 412 424 423 357 
480 397 446 410 452 408 363 438 458 
364 479 492 340 390 427 500 475 417 
421 418 434 460 468 472 465 513 440 
439 490 469 478 416 431 353 464 422 
433 476 455 504 368 466 450 453 435 
525 195 535 473 482 470 366 443 445 
495 474 507 483 533 461 477 361 512 
514 420 498 491 481 471 528 566 494 
503 502 558 509 496 459 436 449 486 
489 493 523 532 484 487 467 444 559 
537 584 542 511 519 488 497 760 563 
753 517 506 762 510 754 573 499 568 
520 565 577 505 485 541 552 589 570 
576 521 540 534 526 548 572 501 588 
522 529 544 539 508 594 462 619 518 
609 562 585 536 547 578 596 543 586 
554 531 451 515 587 545 602 569 546 
603 599 530 582 549 575 579 516 604 
597 581 555 550 618 538 592 615 605 
614 617 556 551 580 608 591 606 621 
620 607 590 601 600 622 567 616 571 
583 564 561 574 611 598 593 610 595 
612 263 613 557 630 560 628 623 634 
553 625 635 632 629 626 627 456 633 
624 631 641 639 637 638 645 647 644 
642 648 636 643 646 658 654 640 655 
660 656 650 653 659 649 651 652 657 
661 672 663 667 674 670 665 671 669 
673 662 682 664 679 666 668 687 680 
685 683 676 686 681 678 675 684 697 
677 698 693 691 689 695 688 694 690 
699 710 696 705 692 700 706 708 712 
702 713 703 701 711 709 707 704 716 
720 717 719 722 725 721 723 724 726 
715 718 714 728 738 730 732 727 735 
734 739 729 736 737 733 731 744 750 
749 752 745 741 742 743 746 747 740 
751 748 758 755 757 763 761 756 764 
759 
type 1 748 int
1 1 1 1 1 1 1 1 1 
1 1 1 1 1 1 1 1 1 
1 1 1 1 1 1 1 1 1 
1 1 1 1 1 1 1 1 1 
1 1 1 1 1 1 1 1 1 
1 1 1 1 1 1 1 1 1 
1 1 1 1 1 1 1 1 1 
1 1 1 1 1 1 1 1 1 
1 1 1 1 1 1 1 1 1 
1 1 1 1 1 1 1 1 1 
1 1 1 1 1 1 1 1 1 
1 1 1 1 1 1 1 1 1 
1 1 1 1 1 1 1 1 1 
1 1 1 1 1 1 1 1 1 
1 1 1 1 1 1 1 1 1 
1 1 1 1 1 1 1 1 1 
1 1 1 1 1 1 1 1 1 
1 1 1 1 1 1 1 1 1 
1 1 1 1 1 1 1 1 1 
1 1 1 1 1 1 1 1 1 
1 1 1 1 1 1 1 1 1 
1 1 1 1 1 1 1 1 1 
1 1 1 1 1 1 1 1 1 
1 1 1 1 1 1 1 1 1 
1 1 1 1 1 1 1 1 1 
1 1 1 1 1 1 1 1 1 
1 1 1 1 1 1 1 1 1 
1 1 1 1 1 1 1 1 1 
1 1 1 1 1 1 1 1 1 
1 1 1 1 1 1 1 1 1 
1 1 1 1 1 1 1 1 1 
1 1 1 1 1 1 1 1 1 
1 1 1 1 1 1 1 1 1 
1 1 1 1 1 1 1 1 1 
1 1 1 1 1 1 1 1 1 
1 1 1 1 1 1 1 1 1 
1 1 1 1 1 1 1 1 1 
1 1 1 1 1 1 1 1 1 
1 1 1 1 1 1 1 1 1 
1 1 1 1 1 1 1 1 1 
1 1 1 1 1 1 1 1 1 
1 1 1 1 1 1 1 1 1 
1 1 1 1 1 1 1 1 1 
1 1 1 1 1 1 1 1 1 
1 1 1 1 1 1 1 1 1 
1 1 1 1 1 1 1 1 1 
1 1 1 1 1 1 1 1 1 
1 1 1 1 1 1 1 1 1 
1 1 1 1 1 1 1 1 1 
1 1 1 1 1 1 1 1 1 
1 1 1 1 1 1 1 1 1 
1 1 1 1 1 1 1 1 1 
1 1 1 1 1 1 1 1 1 
1 1 1 1 1 1 1 1 1 
1 1 1 1 1 1 1 1 1 
1 1 1 1 1 1 1 1 1 
1 1 1 1 1 1 1 1 1 
1 1 1 1 1 1 1 1 1 
1 1 1 1 1 1 1 1 1 
1 1 1 1 1 1 1 1 1 
1 1 1 1 1 1 1 1 1 
1 1 1 1 1 1 1 1 1 
1 1 1 1 1 1 1 1 1 
1 1 1 1 1 1 1 1 1 
1 1 1 1 1 1 1 1 1 
1 1 1 1 1 1 1 1 1 
1 1 1 1 1 1 1 1 1 
1 1 1 1 1 1 1 1 1 
1 1 1 1 1 1 1 1 1 
1 1 1 1 1 1 1 1 1 
1 1 1 1 1 1 1 1 1 
1 1 1 1 1 1 1 1 1 
1 1 1 1 1 1 1 1 1 
1 1 1 1 1 1 1 1 1 
1 1 1 1 1 1 1 1 1 
1 1 1 1 1 1 1 1 1 
1 1 1 1 1 1 1 1 1 
1 1 1 1 1 1 1 1 1 
1 1 1 1 1 1 1 1 1 
1 1 1 1 1 1 1 1 1 
1 1 1 1 1 1 1 1 1 
1 1 1 1 1 1 1 1 1 
1 1 1 1 1 1 1 1 1 
1 
i 3 748 int
0 0 0 0 0 0 0 0 0 
0 0 0 0 0 0 0 0 0 
0 0 0 0 0 0 0 0 0 
0 0 0 0 0 0 0 0 0 
0 0 0 0 0 0 0 0 0 
0 0 0 0 0 0 0 0 0 
0 0 0 0 0 0 0 0 0 
0 0 0 0 0 0 0 0 0 
0 0 0 0 0 0 0 0 0 
0 0 0 0 0 0 0 0 0 
0 0 0 0 0 0 0 0 0 
0 0 0 0 0 0 0 0 0 
0 0 0 0 0 0 0 0 0 
0 0 0 0 0 0 0 0 0 
0 0 0 0 0 0 0 0 0 
0 0 0 0 0 0 0 0 0 
0 0 0 0 0 0 0 0 0 
0 0 0 0 0 0 0 0 0 
0 0 0 0 0 0 0 0 0 
0 0 0 0 0 0 0 0 0 
0 0 0 0 0 0 0 0 0 
0 0 0 0 0 0 0 0 0 
0 0 0 0 0 0 0 0 0 
0 0 0 0 0 0 0 0 0 
0 0 0 0 0 0 0 0 0 
0 0 0 0 0 0 0 0 0 
0 0 0 0 0 0 0 0 0 
0 0 0 0 0 0 0 0 0 
0 0 0 0 0 0 0 0 0 
0 0 0 0 0 0 0 0 0 
0 0 0 0 0 0 0 0 0 
0 0 0 0 0 0 0 0 0 
0 0 0 0 0 0 0 0 0 
0 0 0 0 0 0 0 0 0 
0 0 0 0 0 0 0 0 0 
0 0 0 0 0 0 0 0 0 
0 0 0 0 0 0 0 0 0 
0 0 0 0 0 0 0 0 0 
0 0 0 0 0 0 0 0 0 
0 0 0 0 0 0 0 0 0 
0 0 0 0 0 0 0 0 0 
0 0 0 0 0 0 0 0 0 
0 0 0 0 0 0 0 0 0 
0 0 0 0 0 0 0 0 0 
0 0 0 0 0 0 0 0 0 
0 0 0 0 0 0 0 0 0 
0 0 0 0 0 0 0 0 0 
0 0 0 0 0 0 0 0 0 
0 0 0 0 0 0 0 0 0 
0 0 0 0 0 0 0 0 0 
0 0 0 0 0 0 0 0 0 
0 0 0 0 0 0 0 0 0 
0 0 0 0 0 0 0 0 0 
0 0 0 0 0 0 0 0 0 
0 0 0 0 0 0 0 0 0 
0 0 0 0 0 0 0 0 0 
0 0 0 0 0 0 0 0 0 
0 0 0 0 0 0 0 0 0 
0 0 0 0 0 0 0 0 0 
0 0 0 0 0 0 0 0 0 
0 0 0 0 0 0 0 0 0 
0 0 0 0 0 0 0 0 0 
0 0 0 0 0 0 0 0 0 
0 0 0 0 0 0 0 0 0 
0 0 0 0 0 0 0 0 0 
0 0 0 0 0 0 0 0 0 
0 0 0 0 0 0 0 0 0 
0 0 0 0 0 0 0 0 0 
0 0 0 0 0 0 0 0 0 
0 0 0 0 0 0 0 0 0 
0 0 0 0 0 0 0 0 0 
0 0 0 0 0 0 0 0 0 
0 0 0 0 0 0 0 0 0 
0 0 0 0 0 0 0 0 0 
0 0 0 0 0 0 0 0 0 
0 0 0 0 0 0 0 0 0 
0 0 0 0 0 0 0 0 0 
0 0 0 0 0 0 0 0 0 
0 0 0 0 0 0 0 0 0 
0 0 0 0 0 0 0 0 0 
0 0 0 0 0 0 0 0 0 
0 0 0 0 0 0 0 0 0 
0 0 0 0 0 0 0 0 0 
0 0 0 0 0 0 0 0 0 
0 0 0 0 0 0 0 0 0 
0 0 0 0 0 0 0 0 0 
0 0 0 0 0 0 0 0 0 
0 0 0 0 0 0 0 0 0 
0 0 0 0 0 0 0 0 0 
0 0 0 0 0 0 0 0 0 
0 0 0 0 0 0 0 0 0 
0 0 0 0 0 0 0 0 0 
0 0 0 0 0 0 0 0 0 
0 0 0 0 0 0 0 0 0 
0 0 0 0 0 0 0 0 0 
0 0 0 0 0 0 0 0 0 
0 0 0 0 0 0 0 0 0 
0 0 0 0 0 0 0 0 0 
0 0 0 0 0 0 0 0 0 
0 0 0 0 0 0 0 0 0 
0 0 0 0 0 0 0 0 0 
0 0 0 0 0 0 0 0 0 
0 0 0 0 0 0 0 0 0 
0 0 0 0 0 0 0 0 0 
0 0 0 0 0 0 0 0 0 
0 0 0 0 0 0 0 0 0 
0 0 0 0 0 0 0 0 0 
0 0 0 0 0 0 0 0 0 
0 0 0 0 0 0 0 0 0 
0 0 0 0 0 0 0 0 0 
0 0 0 0 0 0 0 0 0 
0 0 0 0 0 0 0 0 0 
0 0 0 0 0 0 0 0 0 
0 0 0 0 0 0 0 0 0 
0 0 0 0 0 0 0 0 0 
0 0 0 0 0 0 0 0 0 
0 0 0 0 0 0 0 0 0 
0 0 0 0 0 0 0 0 0 
0 0 0 0 0 0 0 0 0 
0 0 0 0 0 0 0 0 0 
0 0 0 0 0 0 0 0 0 
0 0 0 0 0 0 0 0 0 
0 0 0 0 0 0 0 0 0 
0 0 0 0 0 0 0 0 0 
0 0 0 0 0 0 0 0 0 
0 0 0 0 0 0 0 0 0 
0 0 0 0 0 0 0 0 0 
0 0 0 0 0 0 0 0 0 
0 0 0 0 0 0 0 0 0 
0 0 0 0 0 0 0 0 0 
0 0 0 0 0 0 0 0 0 
0 0 0 0 0 0 0 0 0 
0 0 0 0 0 0 0 0 0 
0 0 0 0 0 0 0 0 0 
0 0 0 0 0 0 0 0 0 
0 0 0 0 0 0 0 0 0 
0 0 0 0 0 0 0 0 0 
0 0 0 0 0 0 0 0 0 
0 0 0 0 0 0 0 0 0 
0 0 0 0 0 0 0 0 0 
0 0 0 0 0 0 0 0 0 
0 0 0 0 0 0 0 0 0 
0 0 0 0 0 0 0 0 0 
0 0 0 0 0 0 0 0 0 
0 0 0 0 0 0 0 0 0 
0 0 0 0 0 0 0 0 0 
0 0 0 0 0 0 0 0 0 
0 0 0 0 0 0 0 0 0 
0 0 0 0 0 0 0 0 0 
0 0 0 0 0 0 0 0 0 
0 0 0 0 0 0 0 0 0 
0 0 0 0 0 0 0 0 0 
0 0 0 0 0 0 0 0 0 
0 0 0 0 0 0 0 0 0 
0 0 0 0 0 0 0 0 0 
0 0 0 0 0 0 0 0 0 
0 0 0 0 0 0 0 0 0 
0 0 0 0 0 0 0 0 0 
0 0 0 0 0 0 0 0 0 
0 0 0 0 0 0 0 0 0 
0 0 0 0 0 0 0 0 0 
0 0 0 0 0 0 0 0 0 
0 0 0 0 0 0 0 0 0 
0 0 0 0 0 0 0 0 0 
0 0 0 0 0 0 0 0 0 
0 0 0 0 0 0 0 0 0 
0 0 0 0 0 0 0 0 0 
0 0 0 0 0 0 0 0 0 
0 0 0 0 0 0 0 0 0 
0 0 0 0 0 0 0 0 0 
0 0 0 0 0 0 0 0 0 
0 0 0 0 0 0 0 0 0 
0 0 0 0 0 0 0 0 0 
0 0 0 0 0 0 0 0 0 
0 0 0 0 0 0 0 0 0 
0 0 0 0 0 0 0 0 0 
0 0 0 0 0 0 0 0 0 
0 0 0 0 0 0 0 0 0 
0 0 0 0 0 0 0 0 0 
0 0 0 0 0 0 0 0 0 
0 0 0 0 0 0 0 0 0 
0 0 0 0 0 0 0 0 0 
0 0 0 0 0 0 0 0 0 
0 0 0 0 0 0 0 0 0 
0 0 0 0 0 0 0 0 0 
0 0 0 0 0 0 0 0 0 
0 0 0 0 0 0 0 0 0 
0 0 0 0 0 0 0 0 0 
0 0 0 0 0 0 0 0 0 
0 0 0 0 0 0 0 0 0 
0 0 0 0 0 0 0 0 0 
0 0 0 0 0 0 0 0 0 
0 0 0 0 0 0 0 0 0 
0 0 0 0 0 0 0 0 0 
0 0 0 0 0 0 0 0 0 
0 0 0 0 0 0 0 0 0 
0 0 0 0 0 0 0 0 0 
0 0 0 0 0 0 0 0 0 
0 0 0 0 0 0 0 0 0 
0 0 0 0 0 0 0 0 0 
0 0 0 0 0 0 0 0 0 
0 0 0 0 0 0 0 0 0 
0 0 0 0 0 0 0 0 0 
0 0 0 0 0 0 0 0 0 
0 0 0 0 0 0 0 0 0 
0 0 0 0 0 0 0 0 0 
0 0 0 0 0 0 0 0 0 
0 0 0 0 0 0 0 0 0 
0 0 0 0 0 0 0 0 0 
0 0 0 0 0 0 0 0 0 
0 0 0 0 0 0 0 0 0 
0 0 0 0 0 0 0 0 0 
0 0 0 0 0 0 0 0 0 
0 0 0 0 0 0 0 0 0 
0 0 0 0 0 0 0 0 0 
0 0 0 0 0 0 0 0 0 
0 0 0 0 0 0 0 0 0 
0 0 0 0 0 0 0 0 0 
0 0 0 0 0 0 0 0 0 
0 0 0 0 0 0 0 0 0 
0 0 0 0 0 0 0 0 0 
0 0 0 0 0 0 0 0 0 
0 0 0 0 0 0 0 0 0 
0 0 0 0 0 0 0 0 0 
0 0 0 0 0 0 0 0 0 
0 0 0 0 0 0 0 0 0 
0 0 0 0 0 0 0 0 0 
0 0 0 0 0 0 0 0 0 
0 0 0 0 0 0 0 0 0 
0 0 0 0 0 0 0 0 0 
0 0 0 0 0 0 0 0 0 
0 0 0 0 0 0 0 0 0 
0 0 0 0 0 0 0 0 0 
0 0 0 0 0 0 0 0 0 
0 0 0 0 0 0 0 0 0 
0 0 0 0 0 0 0 0 0 
0 0 0 0 0 0 0 0 0 
0 0 0 0 0 0 0 0 0 
0 0 0 0 0 0 0 0 0 
0 0 0 0 0 0 0 0 0 
0 0 0 0 0 0 0 0 0 
0 0 0 0 0 0 0 0 0 
0 0 0 0 0 0 0 0 0 
0 0 0 0 0 0 0 0 0 
0 0 0 0 0 0 0 0 0 
0 0 0 0 0 0 0 0 0 
0 0 0 0 0 0 0 0 0 
0 0 0 0 0 0 0 0 0 
0 0 0 0 0 0 0 0 0 
0 0 0 
v 3 748 double
-0.742458 -0.0186597 -0.318255 -1.28265 -0.0239591 -1.82804 -1.26435 0.0221371 -1.86978 
-1.14007 0.0619945 -1.80151 -1.18685 -0.0202596 -1.80257 -1.25753 0.0630385 -1.74929 
-1.27086 -0.0159577 -1.76902 -1.36559 -0.0590547 -1.95089 -1.17479 0.0230187 -1.69699 
-1.17123 0.0260053 -1.7104 -1.20375 0.00503665 -1.64897 -1.28551 0.102613 -1.73226 
-1.2302 0.00574051 -1.63163 -1.22067 0.0285474 -1.63704 -1.21196 0.0390049 -1.60733 
-1.24643 -0.117866 -1.61961 -1.08435 0.0642844 -1.59307 -1.0323 0.152826 -1.57688 
-1.116 0.019221 -1.53709 -1.22662 -0.116708 -1.55607 -1.34796 0.269572 -1.59592 
-1.22068 -0.298572 -1.58391 -1.37075 -0.249623 -1.54447 -1.19979 -0.0555813 -1.48297 
-1.10241 -0.0910185 -1.45336 -1.20344 -0.0768672 -1.44828 -1.19319 -0.0892842 -1.45559 
-1.19839 0.239857 -1.59261 -1.08092 -0.0613343 -1.36194 -1.07951 0.0100131 -1.32474 
-1.27485 0.17461 -1.40926 -1.31844 0.0999611 -1.36096 -0.973525 -0.054984 -1.2794 
-1.20031 -0.116061 -1.32141 -1.1745 -0.054974 -1.28743 -0.950694 -0.0282768 -1.26151 
-1.16531 -0.100774 -1.28213 -1.277 -0.273313 -1.35451 -1.21623 0.0824053 -1.22373 
-1.16483 0.0470791 -1.21566 -1.27791 -0.159827 -1.33084 -1.13593 0.0982091 -1.15462 
-1.11646 -0.190801 -1.17416 -1.22816 0.208558 -1.22341 -1.00125 -0.056749 -1.11338 
-1.14832 -0.0493155 -1.16847 -1.24862 0.224029 -1.17893 -1.07355 0.0243757 -1.10116 
-1.15392 0.253472 -1.1462 -0.927985 -0.0893705 -1.09965 -1.16496 0.313566 -1.14765 
-0.916792 0.00792413 -1.09852 -1.0702 0.0723754 -1.06168 -1.16235 0.0278991 -1.05318 
-1.14927 0.0317068 -1.05706 -1.0697 -0.178245 -1.07099 -1.25689 0.0342867 -1.11639 
-1.14264 -0.0465569 -1.0759 -1.06247 -0.0318213 -0.967814 -1.1263 -0.0230756 -0.966343 
-1.06719 -0.01735 -0.888689 -1.05461 -0.0269159 -0.978665 -1.2255 0.338249 -1.07538 
-1.15631 -0.04943 -0.917039 -1.13458 0.0303929 -0.932088 -1.15352 0.0596096 -0.911464 
-1.08618 -0.129173 -0.816538 -1.06918 0.00527484 -0.899426 -1.10517 0.0370108 -0.858128 
-1.04079 0.00651297 -0.787858 -1.13677 0.0257101 -0.79724 -1.21306 -0.0523629 -0.895068 
-1.25934 -0.101095 -0.81748 -1.18328 0.102491 -0.76545 -1.08167 -0.0200369 -0.700136 
-1.08849 -0.0675976 -0.773471 -1.15856 0.079826 -0.71364 -1.17128 -0.0833829 -0.748943 
-1.31752 0.207942 -0.800337 -1.08577 0.104779 -0.821928 -1.08858 -0.00313056 -0.687285 
-1.26404 0.214881 -0.742375 -1.05827 0.0730597 -0.680022 -1.04712 0.0604206 -0.633157 
-0.961548 0.0916634 -0.60694 -1.09304 0.0583722 -0.675298 -1.07089 0.0764774 -0.643525 
-1.08279 0.0902998 -0.674416 -0.973134 0.0703171 -0.605981 -1.01779 0.0943312 -0.574114 
-0.90055 0.147583 -0.567927 -1.06973 -0.0390535 -0.579274 -0.951131 -0.0228196 -0.496719 
-0.941809 0.177325 -0.48449 -1.0324 0.0783191 -0.508836 -1.02105 0.0716794 -0.447781 
-1.06497 -0.0660034 -0.541508 -1.05117 -0.145878 -0.514876 -1.02561 -0.0353521 -0.49505 
-1.04446 -0.0227815 -0.527806 -1.02523 -0.021201 -0.58769 -1.01979 -0.0331081 -0.507434 
-1.05417 0.0584524 -0.524576 -0.886289 -0.129696 -0.48516 -0.890193 -0.0398723 -0.558705 
-1.071 0.176431 -0.582668 -1.08383 -0.051568 -0.444755 -1.22374 -0.113084 -0.516794 
-0.991359 0.127795 -0.703471 -0.827812 0.0819327 -0.338861 -0.952787 0.113382 -0.406241 
-1.25943 -0.0975485 -0.546375 -1.02012 -0.0691582 -0.495236 -1.01956 -0.059453 -0.443124 
-1.08146 -0.0580361 -0.459561 -1.25073 -0.116309 -0.565029 -0.988256 0.109287 -0.48589 
-1.07018 0.1249 -0.492238 -1.07817 0.0771989 -0.505618 -1.17662 0.0356714 -0.497967 
-1.09129 0.174854 -0.466272 -1.12338 -0.0475954 -0.94946 -1.17344 0.146531 -0.484536 
-1.12835 -0.419055 -0.698627 -1.23671 0.0350299 -0.521467 -0.914939 0.122389 -0.441063 
-0.992091 -0.0293115 -0.373426 -1.06646 0.310137 -0.366483 -0.860017 0.00948372 -0.344676 
-0.903755 0.126365 -0.443203 -0.990563 0.0521059 -0.607603 -0.77189 0.248812 -0.342169 
-1.3023 -0.178197 -0.438608 -1.04349 -0.0252872 -0.441155 -1.16212 -0.0841998 -0.494809 
-0.969406 0.109652 -0.376954 -1.11847 -0.0954711 -0.477904 -1.16738 -0.0566188 -0.559166 
-1.16493 -0.0843337 -0.502052 -1.11848 -0.145829 -0.506766 -1.18907 0.104916 -0.514604 
-1.02066 0.0410614 -0.433337 -1.03978 0.0395759 -0.440283 -0.922049 0.114106 -0.38197 
-1.13992 -0.0357673 -0.483283 -1.05574 -0.0844496 -0.424312 -1.04047 0.00683762 -0.439 
-1.01781 -0.0368115 -0.427429 -1.034 0.197312 -0.464127 -1.06548 -0.0532981 -0.442534 
-0.881651 0.13332 -0.382144 -0.921073 0.0409514 -0.377996 -1.01919 -0.132202 -0.437994 
-1.22751 -0.0197845 -0.485231 -1.03822 -0.0161238 -0.416421 -0.894589 -0.0759268 -0.369429 
-0.953844 -0.0299133 -0.395489 -1.01069 0.0517131 -0.43027 -0.870811 0.0124206 -0.36602 
-0.719368 0.0250283 -0.304672 -0.935365 -0.0081554 -0.397053 -0.967972 -0.0274723 -0.413339 
-1.04461 -0.223006 -0.492712 -0.982785 -0.0294258 -0.416456 -0.910598 -0.0262985 -0.362761 
-0.994841 0.0624406 -0.432811 -1.17914 -0.351872 -0.636379 -1.05567 -0.116605 -0.429457 
-1.04302 -0.0623487 -0.426452 -0.892838 0.00987435 -0.372828 -0.92834 0.0952209 -0.397643 
-0.960544 0.0310731 -0.38831 -0.919774 0.0557301 -0.381912 -1.14073 -0.491233 -0.664253 
-1.04418 0.147793 -0.428045 -1.04344 -0.0249841 -0.433159 -0.887153 -0.0047271 -0.37191 
-0.88743 -0.0306867 -0.37886 -0.919324 -0.0459677 -0.3859 -1.01566 -0.0193468 -0.425971 
-1.03536 0.0522597 -0.437428 -0.972308 -0.0339705 -0.416401 -0.986824 -0.0978767 -0.424993 
-0.950912 -0.0400165 -0.400944 -0.942399 -0.0868292 -0.392704 -0.710789 -0.0290211 -0.303483 
-0.944541 0.00560721 -0.403894 -0.796001 0.0393067 -0.33155 -0.931837 -0.288046 -0.479613 
-0.957069 -0.303673 -0.525801 -0.997729 0.137434 -0.471934 -0.891078 0.133431 -0.400632 
-0.927497 -0.0659944 -0.405013 -0.912333 0.0105274 -0.405401 -0.713076 -0.00236026 -0.303687 
-0.744421 -0.0570039 -0.312609 -0.777139 -0.013361 -0.324289 -0.978495 -0.0387999 -0.421642 
-0.959834 -0.0192532 -0.398415 -0.937925 0.0150204 -0.361615 -0.89592 0.153339 -0.41559 
-0.786836 -0.0666261 -0.284985 -0.981218 0.0158122 -0.408408 -0.914629 0.0563512 -0.383855 
-0.807212 -0.114432 -0.324866 -0.958237 -0.0497561 -0.411545 -0.684539 0.0184805 -0.285892 
-0.888848 -0.0731 -0.371215 -0.998716 0.0961705 -0.417409 -0.833849 -0.0750505 -0.35491 
-0.991448 -0.186859 -0.460716 -0.892877 -0.234783 -0.485194 -1.00628 -0.00265807 -0.411395 
-0.994006 -0.0242753 -0.419876 -0.729806 0.00330681 -0.313351 -0.856781 0.0257228 -0.366817 
-0.933718 -0.0904072 -0.390361 -0.84505 -0.0147419 -0.351676 -0.785895 0.05657 -0.30055 
-0.857293 0.197323 -0.341795 -0.863144 0.0933188 -0.375185 -0.960699 -0.013558 -0.407813 
-1.02411 -0.115796 -0.471008 -1.03777 0.0158384 -0.419525 -1.04182 0.04077 -0.414147 
-1.19863 0.10977 -0.545245 -0.927067 -0.181403 -0.685409 -0.834511 -0.0420455 -0.352741 
-0.815834 0.0548847 -0.351182 -0.818492 -0.0241596 -0.342712 -0.796495 0.064757 -0.33339 
-0.779848 0.0420939 -0.320063 -0.839575 -0.0198114 -0.342948 -1.0151 -0.218775 -0.381513 
-0.81749 -0.0403259 -0.34836 -0.78243 0.00422871 -0.333952 -0.785824 0.0390403 -0.467727 
-0.861096 0.0625215 -0.363138 -0.849479 0.0547727 -0.357188 -0.788965 -0.0130558 -0.36528 
-0.790427 0.0995643 -0.328068 -1.04962 -0.0645066 -0.718792 -0.755808 0.00507083 -0.311984 
-0.880685 0.000800155 -0.371742 -0.985075 0.00834852 -0.421466 -1.18726 0.0556993 -0.74747 
-1.05368 0.0855229 -0.64672 -0.85584 -0.134873 -0.375186 -0.898507 -0.0538832 -0.378132 
-0.868252 0.0173794 -0.361062 -0.784368 -0.107445 -0.355217 -0.577365 -0.236968 -0.52505 
-0.821501 0.00249864 -0.348392 -0.539114 0.021242 -0.62256 -0.746348 0.0218963 -0.305807 
-0.89673 0.00762678 -0.341519 -0.720678 0.0800962 -0.310598 -0.722734 0.102293 -0.299613 
-0.763936 -0.0227894 -0.329024 -0.271369 0.125473 -0.106876 -0.901509 -0.0696875 -0.34662 
-0.83281 -0.0768936 -0.32035 -0.77472 0.0082822 -0.320762 -0.853747 0.0303836 -0.356112 
-0.959042 0.158203 -0.374237 -0.749559 -0.089048 -0.325877 -0.85752 0.0333824 -0.358027 
-0.845546 0.219115 -0.366549 -0.854438 0.00635607 -0.366601 -0.710977 -0.0430204 -0.296529 
-0.883408 0.0604948 -0.383695 -0.634546 0.0072961 -0.263868 -0.771517 -0.000789623 -0.320046 
-0.773394 -0.000706858 -0.322898 -0.777887 0.0463773 -0.326813 -0.853547 -0.135593 -0.376827 
-0.912992 0.00215401 -0.385404 -1.02241 0.0228784 -0.349871 -0.822214 0.108776 -0.334175 
-0.810253 0.0103913 -0.335799 -0.869004 0.011072 -0.360217 -0.832951 -0.0169088 -0.331146 
-0.775364 -0.239839 -0.25272 -0.848396 -0.0211573 -0.281859 -0.924831 0.0403032 -0.333099 
-0.771621 0.0111204 -0.322245 -0.629958 0.0479017 -0.263773 -0.737343 0.0849319 -0.306171 
-0.73593 -0.000146514 -0.312872 -0.737137 -0.000927177 -0.308701 -0.859155 -0.0365438 -0.374883 
-0.987431 -0.0311545 -0.399115 -0.848431 -0.053012 -0.324891 -0.851823 -0.0513787 -0.35686 
-0.811958 0.0467412 -0.332904 -1.09777 -0.181021 -0.326638 -0.784704 0.0070791 -0.227903 
-0.726491 -0.0539681 -0.298284 -0.67583 0.0087667 -0.292665 -0.874535 -0.0669522 -0.858591 
-0.857685 -0.135101 -0.351262 -0.754718 -0.0676484 -0.326557 -0.702565 -0.000213207 -0.298321 
-0.695101 0.0609536 -0.285007 -0.76037 -0.0123351 -0.317338 -0.904618 -0.100256 -0.400648 
-0.766128 -0.0529494 -0.32038 -0.731643 -0.022139 -0.304843 -0.750771 -0.0261443 -0.309574 
-0.939888 -0.123543 -0.115074 -0.673307 0.0028747 -0.277008 -0.69454 -0.0373992 -0.304175 
-0.883941 0.0630368 -0.30003 -0.78004 0.00043492 -0.328647 -0.873172 0.0324861 -0.347276 
-0.901829 -0.0605542 -0.405147 -0.809463 0.216517 -0.408572 -0.847425 -0.172072 -0.600711 
-0.734714 -0.027523 -0.300136 -0.640859 0.0759152 -0.318051 -0.8267 -0.00690571 -0.452411 
-1.07075 -0.106714 -0.214381 -0.611494 0.0365845 -0.262517 -0.63355 -0.0827098 -0.242476 
-0.711044 -0.0218441 -0.302997 -0.635297 -0.0133601 -0.263103 -0.650597 -0.02833 -0.26002 
-0.638376 -0.040169 -0.261541 -0.846234 0.0682497 -0.341161 -0.82986 0.0760043 -0.351639 
-0.821295 0.078059 -0.347052 -0.665952 0.00730468 -0.323276 -0.76827 0.0269304 -0.312139 
-0.871237 -0.00460421 -0.35973 -0.853932 0.000425599 -0.337921 -0.945204 0.0194868 -0.374236 
-0.872001 -0.093485 -0.915638 -0.684603 -0.0589869 -0.286513 -0.691947 0.0111846 -0.287842 
-0.860488 0.0180023 -0.463442 -0.698656 -0.0340217 -0.235059 -0.621126 -0.106233 -0.274855 
-0.776806 0.0059449 -0.435158 -0.482113 -0.0495518 -0.204288 -0.692441 0.134458 -0.279449 
-0.787714 -0.0358064 -0.300851 -0.905459 -0.0640102 -0.500651 -0.891904 -0.106401 -0.396127 
-0.749817 -0.0144564 -0.338848 -0.719444 -0.0734871 -0.332603 -0.902166 -0.261568 -0.558107 
-0.735007 -0.0507 -0.309087 -0.831251 -0.0704261 -0.343896 -0.744806 -0.0995215 -0.397316 