# vtk DataFile Version 4.0
Generated by LIGGGHTS
ASCII
DATASET POLYDATA
POINTS 847 float
-0.203 -0.00839917 -0.191364 -0.20242 -0.000130509 -0.190229 -0.203459 -0.0158106 -0.190776 
-0.200571 -0.00668257 -0.190511 -0.200648 0.0392776 -0.182102 -0.200662 0.00646828 -0.190555 
-0.201655 0.00921975 -0.187373 -0.45783 -0.0114629 -0.398205 -0.47592 -0.00594514 -0.397868 
-0.477965 -0.037611 -0.391948 -0.470363 -0.00919584 -0.392515 -0.469144 0.00196328 -0.389543 
-0.455895 0.0167011 -0.391671 -0.459603 0.022203 -0.389938 -0.461749 -0.0295604 -0.388419 
-0.47467 -0.00866584 -0.387606 -0.457165 -0.00249606 -0.38882 -0.452155 0.00350907 -0.387979 
-0.462142 -0.0103339 -0.383837 -0.444394 0.00996538 -0.382915 -0.445155 0.0131757 -0.38238 
-0.455313 0.0385851 -0.385635 -0.463849 -0.0163999 -0.378203 -0.458651 -0.00611456 -0.376695 
-0.454545 -0.00298739 -0.376095 -0.444017 0.00495023 -0.378276 -0.461691 0.00140101 -0.373264 
-0.471222 0.00745616 -0.371727 -0.458248 0.000192433 -0.369218 -0.454996 0.00274277 -0.370088 
-0.442808 0.0121906 -0.371186 -0.462833 -0.00562955 -0.365165 -0.425114 0.00713003 -0.361898 
-0.434802 -0.0200002 -0.357314 -0.451308 -0.00298503 -0.358019 -0.433252 -0.00773913 -0.355416 
-0.432589 -0.00322542 -0.353397 -0.430939 0.00319547 -0.355148 -0.410494 0.0103051 -0.355294 
-0.436303 0.012485 -0.355513 -0.424691 0.0129383 -0.3541 -0.443623 -0.0123295 -0.35195 
-0.431192 -0.0128881 -0.351551 -0.467639 0.00191745 -0.351625 -0.426154 -0.00946366 -0.349081 
-0.408862 0.00342023 -0.345946 -0.425882 0.00814168 -0.346325 -0.419986 0.00850528 -0.348185 
-0.445505 0.0118815 -0.347737 -0.441697 -0.0380086 -0.344243 -0.432408 -0.0263416 -0.344228 
-0.430126 -0.0218212 -0.342756 -0.443042 -0.00682173 -0.346119 -0.422416 -0.00020874 -0.344178 
-0.446368 0.00816308 -0.344381 -0.443614 -0.00965709 -0.339739 -0.426728 -0.00440596 -0.341473 
-0.431383 -0.00224692 -0.341844 -0.412375 -0.000804879 -0.341049 -0.439265 0.00261488 -0.338754 
-0.419658 0.00444583 -0.340707 -0.444332 0.0154316 -0.34067 -0.419792 -0.00170206 -0.335469 
-0.429366 0.00707108 -0.335536 -0.423969 0.00882312 -0.338273 -0.424814 -0.0013209 -0.334203 
-0.422276 0.00545617 -0.33471 -0.408879 0.00645775 -0.33383 -0.382164 0.0040884 -0.333279 
-0.431497 0.0131727 -0.333492 -0.410457 0.0114686 -0.333653 -0.436025 -0.00304078 -0.329192 
-0.420495 -0.00265767 -0.330558 -0.408064 0.00141142 -0.328561 -0.400666 0.00974781 -0.329558 
-0.430817 -0.00142511 -0.327125 -0.408868 0.00458922 -0.325415 -0.431632 0.016948 -0.327024 
-0.42296 -0.0117322 -0.322881 -0.444887 0.00727948 -0.323727 -0.417268 0.0104263 -0.323356 
-0.405735 0.00743982 -0.323253 -0.426895 0.0157112 -0.321426 -0.433047 -0.027412 -0.320782 
-0.403723 -0.00849712 -0.318082 -0.425214 0.00483583 -0.317309 -0.411718 0.00484396 -0.317424 
-0.425613 -0.0262886 -0.316548 -0.410047 -0.0190205 -0.31569 -0.418642 -0.00613907 -0.313403 
-0.406415 -0.00498825 -0.313449 -0.390763 0.0017618 -0.315503 -0.395524 0.00432257 -0.313408 
-0.426065 0.012267 -0.316585 -0.400606 -0.0046192 -0.31008 -0.425288 -0.00193539 -0.31032 
-0.410116 -0.0106014 -0.307041 -0.412013 -0.00425965 -0.309394 -0.397596 -0.00624929 -0.308307 
-0.408369 -0.00265189 -0.307261 -0.41388 0.0150934 -0.308424 -0.384591 -0.0230047 -0.304774 
-0.407112 -0.0128559 -0.302846 -0.408174 -0.00545097 -0.303378 -0.41537 0.00199546 -0.303418 
-0.394392 -0.00391484 -0.300699 -0.399014 0.00214037 -0.302043 -0.406185 -0.0066151 -0.298245 
-0.39526 -0.00619514 -0.296391 -0.400839 0.00508657 -0.294949 -0.400263 0.0119555 -0.297843 
-0.404306 0.0142165 -0.298995 -0.390403 0.00423188 -0.294744 -0.39226 0.00720671 -0.293864 
-0.391114 0.0114837 -0.292176 -0.40972 0.044345 -0.292925 -0.391264 -0.00900808 -0.290919 
-0.392267 -0.00460299 -0.290863 -0.390563 0.0005284 -0.291399 -0.389543 -0.0125893 -0.287655 
-0.389557 -0.00252562 -0.286989 -0.382557 0.00712574 -0.286038 -0.375826 0.0116071 -0.282463 
-0.382681 -0.010877 -0.280266 -0.378868 -0.0122541 -0.27691 -0.373333 0.00184188 -0.276993 
-0.381019 0.00992914 -0.279172 -0.376022 0.0206439 -0.280171 -0.386539 0.0249555 -0.280431 
-0.393337 0.0395783 -0.277265 -0.387522 -0.029723 -0.275166 -0.380982 -0.0253805 -0.27458 
-0.367985 0.00566794 -0.276003 -0.373215 0.0116038 -0.273787 -0.376353 0.0161797 -0.275701 
-0.369877 0.024165 -0.275875 -0.372416 -0.0152882 -0.269948 -0.368067 0.00327156 -0.271572 
-0.370602 0.0141738 -0.27144 -0.372106 0.0196115 -0.270756 -0.368912 -0.0193356 -0.266826 
-0.364624 -0.00673355 -0.268923 -0.36502 -0.00175403 -0.267862 -0.364782 0.0034371 -0.268108 
-0.37056 0.00750156 -0.268528 -0.367325 0.00957734 -0.267437 -0.367871 0.0198272 -0.267187 
-0.370745 -0.037692 -0.26278 -0.358001 0.0019532 -0.263517 -0.360784 0.00772763 -0.264379 
-0.358707 0.0118432 -0.264734 -0.36439 0.0204766 -0.262313 -0.373461 0.0237323 -0.264736 
-0.354745 -0.0123591 -0.259879 -0.355416 -0.0044892 -0.261408 -0.352905 -0.00572582 -0.259873 
-0.353213 0.00309441 -0.260073 -0.352021 0.00790896 -0.258948 -0.357182 0.0107463 -0.258689 
-0.360377 0.0317809 -0.259411 -0.361003 -0.026914 -0.257961 -0.351677 -0.00887679 -0.257147 
-0.346905 -0.00960038 -0.256502 -0.34992 -0.0052147 -0.257263 -0.350055 -0.00251179 -0.254826 
-0.350603 0.00471054 -0.256733 -0.346293 0.00551244 -0.254988 -0.378812 0.0125611 -0.256266 
-0.351646 0.0214828 -0.255998 -0.351302 -0.0269461 -0.253042 -0.346915 -0.0165472 -0.253063 
-0.344695 -0.0118461 -0.253491 -0.346434 0.0135569 -0.253728 -0.376485 0.0495345 -0.252649 
-0.340687 -0.012106 -0.247676 -0.335268 0.00882833 -0.247581 -0.338257 0.011338 -0.248522 
-0.346563 0.0189809 -0.250968 -0.345784 0.0350057 -0.248097 -0.347059 -0.0356769 -0.247037 
-0.329038 0.00920559 -0.244571 -0.331657 0.0208637 -0.243912 -0.322734 -0.019849 -0.240069 
-0.32521 -0.00998486 -0.241552 -0.324515 0.018135 -0.241158 -0.336677 0.0305901 -0.243307 
-0.353656 -0.0517135 -0.240426 -0.32043 -0.0301826 -0.236546 -0.315591 -0.0136207 -0.23814 
-0.310285 -0.00985678 -0.236413 -0.311066 -0.00655245 -0.237074 -0.312826 -0.000318937 -0.238039 
-0.30999 -0.000675928 -0.236829 -0.316935 0.0115738 -0.239056 -0.317543 0.0226653 -0.237345 
-0.31134 -0.0165903 -0.235907 -0.303713 -0.0158563 -0.232967 -0.305755 -0.00686372 -0.23374 
-0.3075 0.000482011 -0.234782 -0.306329 0.00641748 -0.234912 -0.30662 0.0142532 -0.234422 
-0.310405 0.0282476 -0.233051 -0.297913 -0.0169602 -0.230403 -0.294698 -0.00676771 -0.22908 
-0.299432 -0.00330861 -0.232091 -0.296562 -0.000564608 -0.231165 -0.300683 0.000650707 -0.231811 
-0.302204 0.006781 -0.232064 -0.294725 0.00731992 -0.229578 -0.301102 0.0142776 -0.231017 
-0.302328 0.0191991 -0.231669 -0.298742 0.0183662 -0.229236 -0.308041 0.0251604 -0.231795 
-0.295869 -0.0201679 -0.227836 -0.286678 -0.0138594 -0.2261 -0.28888 -0.00808235 -0.226564 
-0.283008 -0.00148091 -0.225412 -0.290689 0.00495611 -0.228409 -0.287261 0.00975153 -0.226654 
-0.289943 0.0145611 -0.227402 -0.288609 0.0208308 -0.225681 -0.302625 0.0235565 -0.228118 
-0.295281 0.0221695 -0.227058 -0.292217 0.0258587 -0.226217 -0.289342 0.025051 -0.225195 
-0.308735 0.0364993 -0.228419 -0.312325 0.0449767 -0.227086 -0.325936 -0.0538976 -0.226874 
-0.283707 -0.0288594 -0.22191 -0.282881 -0.0240114 -0.222803 -0.27906 -0.0188775 -0.222173 
-0.284088 -0.0147753 -0.22489 -0.284361 -0.0104212 -0.22441 -0.277531 -0.0125048 -0.222397 
-0.279222 -0.00990457 -0.223391 -0.284134 -0.00538857 -0.224546 -0.274709 -0.00465101 -0.221806 
-0.278881 6.34007e-05 -0.223336 -0.276485 0.00488626 -0.22245 -0.279873 0.00754147 -0.223698 
-0.28212 0.0114151 -0.224406 -0.278521 0.0109356 -0.221864 -0.282759 0.0144695 -0.224386 
-0.281304 0.0168886 -0.223126 -0.286203 0.0237488 -0.223068 -0.296885 0.0418617 -0.22265 
-0.275434 -0.00842656 -0.22147 -0.26993 -0.0050855 -0.219763 -0.271259 -0.000567572 -0.219408 
-0.273683 0.00549045 -0.22126 -0.299805 0.00797281 -0.220398 -0.274268 0.0118424 -0.22114 
-0.277391 0.0156875 -0.220575 -0.279575 0.0287326 -0.219047 -0.265723 -0.0125892 -0.216341 
-0.261953 -0.00927876 -0.216228 -0.268386 -0.00315101 -0.218034 -0.266204 0.00680495 -0.218029 
-0.262047 0.00574441 -0.215249 -0.275059 0.0247504 -0.218297 -0.26973 -0.0373838 -0.213452 
-0.264518 -0.0325293 -0.211802 -0.259427 -0.0257361 -0.211353 -0.256181 -0.022721 -0.211822 
-0.259193 -0.0200135 -0.212524 -0.254473 -0.0122989 -0.212746 -0.258942 -0.00716365 -0.213962 
-0.250659 -0.00682469 -0.211565 -0.255414 0.00521032 -0.212474 -0.258922 0.0191517 -0.213606 
-0.262603 0.0323872 -0.212137 -0.296641 0.0607636 -0.211164 -0.251058 -0.0303167 -0.208037 
-0.254206 -0.0268923 -0.210033 -0.253231 -0.0230339 -0.21061 -0.245321 -0.0195493 -0.207805 
-0.249306 -0.0148345 -0.210179 -0.245252 -0.0119775 -0.208908 -0.272384 -0.00937261 -0.209103 
-0.244966 0.00675009 -0.207705 -0.249075 0.0119786 -0.210538 -0.246188 0.0183584 -0.208382 
-0.251349 0.0273312 -0.208865 -0.257338 -0.043014 -0.206291 -0.245517 -0.0292026 -0.204849 
-0.247851 -0.0241662 -0.207064 -0.240984 -0.0224641 -0.205617 -0.241399 -0.0149173 -0.206924 
-0.238271 -0.00138204 -0.205468 -0.233138 -0.00118345 -0.204351 -0.239295 0.00593212 -0.206722 
-0.236818 0.00345851 -0.204685 -0.234978 0.00700395 -0.204886 -0.242992 0.0179306 -0.206016 
-0.243196 0.0270148 -0.205573 -0.241996 -0.0339425 -0.202142 -0.234054 -0.0289144 -0.201285 
-0.236779 -0.0275303 -0.202718 -0.229777 -0.0221903 -0.200898 -0.236313 -0.0153574 -0.203657 
-0.230032 -0.0112402 -0.202442 -0.225387 -0.00766149 -0.200794 -0.228617 0.00189971 -0.202355 
-0.232373 0.00450406 -0.203677 -0.229872 0.00586018 -0.202786 -0.227144 0.00578465 -0.201398 
-0.234093 0.00957126 -0.201946 -0.236297 0.0140353 -0.203762 -0.22955 0.0115858 -0.201213 
-0.221003 -0.0160235 -0.197077 -0.22596 -0.0132408 -0.199447 -0.218004 -0.0119029 -0.197294 
-0.221733 -0.00709355 -0.199279 -0.223831 -0.00448508 -0.200393 -0.216403 -0.00511053 -0.19725 
-0.220706 -0.00121356 -0.19907 -0.218308 -0.00284777 -0.198076 -0.215534 -0.00202355 -0.196878 
[...]
POINT_DATA 847
FIELD FieldData 7
id 1 847 int
486 610 602 577 692 606 742 180 115 
337 355 190 309 325 301 193 236 289 
256 184 288 272 221 212 207 318 266 
319 315 323 311 413 172 249 324 106 
217 251 197 160 254 365 317 396 313 
169 341 250 242 297 338 312 350 284 
179 403 255 229 107 308 310 264 333 
370 352 280 261 235 213 380 345 379 
269 225 389 307 346 332 253 267 240 
168 404 381 425 294 306 405 321 373 
305 283 344 356 322 406 303 391 247 
378 504 359 237 316 383 241 330 336 
285 354 401 463 334 411 384 339 376 
226 331 329 291 173 438 328 335 441 
296 392 457 439 398 456 402 326 367 
362 371 395 298 419 386 248 393 377 
414 468 369 535 426 481 429 407 496 
358 388 273 374 424 421 448 360 432 
349 415 400 394 447 584 423 437 452 
409 410 510 443 442 382 446 490 523 
276 399 195 470 475 477 618 467 385 
462 387 428 465 449 540 464 460 343 
427 513 473 461 430 434 472 478 469 
458 550 471 502 357 483 484 351 408 
451 353 440 480 390 459 431 397 525 
494 436 499 568 418 363 476 422 479 
435 433 554 500 375 466 416 368 453 
417 533 526 412 505 599 340 561 450 
509 573 455 492 366 364 558 537 501 
560 508 543 522 582 482 645 507 583 
541 596 518 515 361 603 564 619 611 
445 530 566 615 630 546 420 493 498 
495 454 538 444 529 572 578 520 581 
489 553 497 514 512 551 556 591 524 
548 574 549 511 559 576 545 531 542 
503 589 506 656 488 491 528 588 474 
534 719 547 614 487 565 527 563 594 
532 562 557 521 517 516 676 677 675 
627 519 604 485 571 609 683 635 620 
586 698 624 662 648 598 875 844 848 
821 900 650 555 661 587 552 658 804 
858 633 655 608 628 682 711 595 674 
570 580 654 575 629 590 702 647 613 
666 707 612 632 680 621 607 585 681 
625 644 536 600 734 880 567 699 736 
775 715 616 643 617 640 631 671 673 
641 685 592 694 726 669 634 716 544 
697 725 263 637 712 721 700 636 691 
539 668 652 597 690 639 638 657 649 
569 593 601 688 653 622 739 744 660 
665 642 651 626 704 703 646 727 713 
670 678 812 663 720 684 717 755 679 
701 710 686 623 667 664 735 730 718 
747 774 741 784 724 672 579 714 754 
794 760 696 709 777 753 708 732 757 
695 782 822 776 788 756 769 722 733 
750 800 790 748 809 723 738 729 789 
706 827 687 803 785 853 740 771 728 
737 762 752 805 826 781 693 795 705 
792 780 778 787 759 689 810 839 743 
823 773 783 751 765 801 764 797 766 
808 840 866 829 813 746 763 816 828 
768 767 731 836 798 796 772 791 811 
846 856 830 758 845 819 817 843 779 
892 814 852 761 831 841 815 820 818 
838 799 806 849 851 824 889 870 859 
903 891 807 871 872 793 873 879 835 
867 1095 868 874 833 847 919 863 786 
1093 1098 922 913 899 770 842 834 911 
909 918 749 857 881 941 837 915 825 
832 883 855 890 936 940 878 865 861 
929 912 931 924 887 894 943 854 862 
882 877 659 957 897 898 896 888 933 
895 928 908 876 916 886 885 923 893 
920 869 945 935 902 901 860 905 946 
954 953 942 955 937 938 956 921 927 
904 884 910 947 925 864 930 939 951 
934 926 907 944 914 932 906 948 958 
917 850 952 949 950 961 802 966 968 
965 962 745 963 959 969 971 964 967 
970 960 605 978 976 975 972 983 980 
981 979 977 974 982 973 986 993 989 
992 991 987 988 994 995 1009 984 990 
996 1004 985 1001 1006 1007 1008 1003 998 
1005 997 1002 999 1014 1020 1021 1000 1019 
1013 1022 1015 1017 1011 1018 1016 1010 1012 
1031 1026 1027 1029 1028 1034 1032 1033 1035 
1025 1024 1042 1023 1030 1040 1038 1045 1047 
1036 1039 1037 1041 1043 1044 1052 1046 1048 
1049 1051 1053 1059 1057 1056 1058 1054 1055 
1050 1061 1065 1066 1062 1060 1070 1071 1069 
1072 1068 1063 1064 1073 1075 1078 1076 1067 
1077 1085 1074 1082 1081 1084 1083 1080 1079 
1094 1096 1092 1091 1090 1087 1088 1086 1089 
1097 
type 1 847 int
1 1 1 1 1 1 1 1 1 
1 1 1 1 1 1 1 1 1 
1 1 1 1 1 1 1 1 1 
1 1 1 1 1 1 1 1 1 
1 1 1 1 1 1 1 1 1 
1 1 1 1 1 1 1 1 1 
1 1 1 1 1 1 1 1 1 
1 1 1 1 1 1 1 1 1 
1 1 1 1 1 1 1 1 1 
1 1 1 1 1 1 1 1 1 
1 1 1 1 1 1 1 1 1 
1 1 1 1 1 1 1 1 1 
1 1 1 1 1 1 1 1 1 
1 1 1 1 1 1 1 1 1 
1 1 1 1 1 1 1 1 1 
1 1 1 1 1 1 1 1 1 
1 1 1 1 1 1 1 1 1 
1 1 1 1 1 1 1 1 1 
1 1 1 1 1 1 1 1 1 
1 1 1 1 1 1 1 1 1 
1 1 1 1 1 1 1 1 1 
1 1 1 1 1 1 1 1 1 
1 1 1 1 1 1 1 1 1 
1 1 1 1 1 1 1 1 1 
1 1 1 1 1 1 1 1 1 
1 1 1 1 1 1 1 1 1 
1 1 1 1 1 1 1 1 1 
1 1 1 1 1 1 1 1 1 
1 1 1 1 1 1 1 1 1 
1 1 1 1 1 1 1 1 1 
1 1 1 1 1 1 1 1 1 
1 1 1 1 1 1 1 1 1 
1 1 1 1 1 1 1 1 1 
1 1 1 1 1 1 1 1 1 
1 1 1 1 1 1 1 1 1 
1 1 1 1 1 1 1 1 1 
1 1 1 1 1 1 1 1 1 
1 1 1 1 1 1 1 1 1 
1 1 1 1 1 1 1 1 1 
1 1 1 1 1 1 1 1 1 
1 1 1 1 1 1 1 1 1 
1 1 1 1 1 1 1 1 1 
1 1 1 1 1 1 1 1 1 
1 1 1 1 1 1 1 1 1 
1 1 1 1 1 1 1 1 1 
1 1 1 1 1 1 1 1 1 
1 1 1 1 1 1 1 1 1 
1 1 1 1 1 1 1 1 1 
1 1 1 1 1 1 1 1 1 
1 1 1 1 1 1 1 1 1 
1 1 1 1 1 1 1 1 1 
1 1 1 1 1 1 1 1 1 
1 1 1 1 1 1 1 1 1 
1 1 1 1 1 1 1 1 1 
1 1 1 1 1 1 1 1 1 
1 1 1 1 1 1 1 1 1 
1 1 1 1 1 1 1 1 1 
1 1 1 1 1 1 1 1 1 
1 1 1 1 1 1 1 1 1 
1 1 1 1 1 1 1 1 1 
1 1 1 1 1 1 1 1 1 
1 1 1 1 1 1 1 1 1 
1 1 1 1 1 1 1 1 1 
1 1 1 1 1 1 1 1 1 
1 1 1 1 1 1 1 1 1 
1 1 1 1 1 1 1 1 1 
1 1 1 1 1 1 1 1 1 
1 1 1 1 1 1 1 1 1 
1 1 1 1 1 1 1 1 1 
1 1 1 1 1 1 1 1 1 
1 1 1 1 1 1 1 1 1 
1 1 1 1 1 1 1 1 1 
1 1 1 1 1 1 1 1 1 
1 1 1 1 1 1 1 1 1 
1 1 1 1 1 1 1 1 1 
1 1 1 1 1 1 1 1 1 
1 1 1 1 1 1 1 1 1 
1 1 1 1 1 1 1 1 1 
1 1 1 1 1 1 1 1 1 
1 1 1 1 1 1 1 1 1 
1 1 1 1 1 1 1 1 1 
1 1 1 1 1 1 1 1 1 
1 1 1 1 1 1 1 1 1 
1 1 1 1 1 1 1 1 1 
1 1 1 1 1 1 1 1 1 
1 1 1 1 1 1 1 1 1 
1 1 1 1 1 1 1 1 1 
1 1 1 1 1 1 1 1 1 
1 1 1 1 1 1 1 1 1 
1 1 1 1 1 1 1 1 1 
1 1 1 1 1 1 1 1 1 
1 1 1 1 1 1 1 1 1 
1 1 1 1 1 1 1 1 1 
1 1 1 1 1 1 1 1 1 
1 
i 3 847 int
0 0 0 0 0 0 0 0 0 
0 0 0 0 0 0 0 0 0 
0 0 0 0 0 0 0 0 0 
0 0 0 0 0 0 0 0 0 
0 0 0 0 0 0 0 0 0 
0 0 0 0 0 0 0 0 0 
0 0 0 0 0 0 0 0 0 
0 0 0 0 0 0 0 0 0 
0 0 0 0 0 0 0 0 0 
0 0 0 0 0 0 0 0 0 
0 0 0 0 0 0 0 0 0 
0 0 0 0 0 0 0 0 0 
0 0 0 0 0 0 0 0 0 
0 0 0 0 0 0 0 0 0 
0 0 0 0 0 0 0 0 0 
0 0 0 0 0 0 0 0 0 
0 0 0 0 0 0 0 0 0 
0 0 0 0 0 0 0 0 0 
0 0 0 0 0 0 0 0 0 
0 0 0 0 0 0 0 0 0 
0 0 0 0 0 0 0 0 0 
0 0 0 0 0 0 0 0 0 
0 0 0 0 0 0 0 0 0 
0 0 0 0 0 0 0 0 0 
0 0 0 0 0 0 0 0 0 
0 0 0 0 0 0 0 0 0 
0 0 0 0 0 0 0 0 0 
0 0 0 0 0 0 0 0 0 
0 0 0 0 0 0 0 0 0 
0 0 0 0 0 0 0 0 0 
0 0 0 0 0 0 0 0 0 
0 0 0 0 0 0 0 0 0 
0 0 0 0 0 0 0 0 0 
0 0 0 0 0 0 0 0 0 
0 0 0 0 0 0 0 0 0 
0 0 0 0 0 0 0 0 0 
0 0 0 0 0 0 0 0 0 
0 0 0 0 0 0 0 0 0 
0 0 0 0 0 0 0 0 0 
0 0 0 0 0 0 0 0 0 
0 0 0 0 0 0 0 0 0 
0 0 0 0 0 0 0 0 0 
0 0 0 0 0 0 0 0 0 
0 0 0 0 0 0 0 0 0 
0 0 0 0 0 0 0 0 0 
0 0 0 0 0 0 0 0 0 
0 0 0 0 0 0 0 0 0 
0 0 0 0 0 0 0 0 0 
0 0 0 0 0 0 0 0 0 
0 0 0 0 0 0 0 0 0 
0 0 0 0 0 0 0 0 0 
0 0 0 0 0 0 0 0 0 
0 0 0 0 0 0 0 0 0 
0 0 0 0 0 0 0 0 0 
0 0 0 0 0 0 0 0 0 
0 0 0 0 0 0 0 0 0 
0 0 0 0 0 0 0 0 0 
0 0 0 0 0 0 0 0 0 
0 0 0 0 0 0 0 0 0 
0 0 0 0 0 0 0 0 0 
0 0 0 0 0 0 0 0 0 
0 0 0 0 0 0 0 0 0 
0 0 0 0 0 0 0 0 0 
0 0 0 0 0 0 0 0 0 
0 0 0 0 0 0 0 0 0 
0 0 0 0 0 0 0 0 0 
0 0 0 0 0 0 0 0 0 
0 0 0 0 0 0 0 0 0 
0 0 0 0 0 0 0 0 0 
0 0 0 0 0 0 0 0 0 
0 0 0 0 0 0 0 0 0 
0 0 0 0 0 0 0 0 0 
0 0 0 0 0 0 0 0 0 
0 0 0 0 0 0 0 0 0 
0 0 0 0 0 0 0 0 0 
0 0 0 0 0 0 0 0 0 
0 0 0 0 0 0 0 0 0 
0 0 0 0 0 0 0 0 0 
0 0 0 0 0 0 0 0 0 
0 0 0 0 0 0 0 0 0 
0 0 0 0 0 0 0 0 0 
0 0 0 0 0 0 0 0 0 
0 0 0 0 0 0 0 0 0 
0 0 0 0 0 0 0 0 0 
0 0 0 0 0 0 0 0 0 
0 0 0 0 0 0 0 0 0 
0 0 0 0 0 0 0 0 0 
0 0 0 0 0 0 0 0 0 
0 0 0 0 0 0 0 0 0 
0 0 0 0 0 0 0 0 0 
0 0 0 0 0 0 0 0 0 
0 0 0 0 0 0 0 0 0 
0 0 0 0 0 0 0 0 0 
0 0 0 0 0 0 0 0 0 
0 0 0 0 0 0 0 0 0 
0 0 0 0 0 0 0 0 0 
0 0 0 0 0 0 0 0 0 
0 0 0 0 0 0 0 0 0 
0 0 0 0 0 0 0 0 0 
0 0 0 0 0 0 0 0 0 
0 0 0 0 0 0 0 0 0 
0 0 0 0 0 0 0 0 0 
0 0 0 0 0 0 0 0 0 
0 0 0 0 0 0 0 0 0 
0 0 0 0 0 0 0 0 0 
0 0 0 0 0 0 0 0 0 
0 0 0 0 0 0 0 0 0 
0 0 0 0 0 0 0 0 0 
0 0 0 0 0 0 0 0 0 
0 0 0 0 0 0 0 0 0 
0 0 0 0 0 0 0 0 0 
0 0 0 0 0 0 0 0 0 
0 0 0 0 0 0 0 0 0 
0 0 0 0 0 0 0 0 0 
0 0 0 0 0 0 0 0 0 
0 0 0 0 0 0 0 0 0 
0 0 0 0 0 0 0 0 0 
0 0 0 0 0 0 0 0 0 
0 0 0 0 0 0 0 0 0 
0 0 0 0 0 0 0 0 0 
0 0 0 0 0 0 0 0 0 
0 0 0 0 0 0 0 0 0 
0 0 0 0 0 0 0 0 0 
0 0 0 0 0 0 0 0 0 
0 0 0 0 0 0 0 0 0 
0 0 0 0 0 0 0 0 0 
0 0 0 0 0 0 0 0 0 
0 0 0 0 0 0 0 0 0 
0 0 0 0 0 0 0 0 0 
0 0 0 0 0 0 0 0 0 
0 0 0 0 0 0 0 0 0 
0 0 0 0 0 0 0 0 0 
0 0 0 0 0 0 0 0 0 
0 0 0 0 0 0 0 0 0 
0 0 0 0 0 0 0 0 0 
0 0 0 0 0 0 0 0 0 
0 0 0 0 0 0 0 0 0 
0 0 0 0 0 0 0 0 0 
0 0 0 0 0 0 0 0 0 
0 0 0 0 0 0 0 0 0 
0 0 0 0 0 0 0 0 0 
0 0 0 0 0 0 0 0 0 
0 0 0 0 0 0 0 0 0 
0 0 0 0 0 0 0 0 0 
0 0 0 0 0 0 0 0 0 
0 0 0 0 0 0 0 0 0 
0 0 0 0 0 0 0 0 0 
0 0 0 0 0 0 0 0 0 
0 0 0 0 0 0 0 0 0 
0 0 0 0 0 0 0 0 0 
0 0 0 0 0 0 0 0 0 
0 0 0 0 0 0 0 0 0 
0 0 0 0 0 0 0 0 0 
0 0 0 0 0 0 0 0 0 
0 0 0 0 0 0 0 0 0 
0 0 0 0 0 0 0 0 0 
0 0 0 0 0 0 0 0 0 
0 0 0 0 0 0 0 0 0 
0 0 0 0 0 0 0 0 0 
0 0 0 0 0 0 0 0 0 
0 0 0 0 0 0 0 0 0 
0 0 0 0 0 0 0 0 0 
0 0 0 0 0 0 0 0 0 
0 0 0 0 0 0 0 0 0 
0 0 0 0 0 0 0 0 0 
0 0 0 0 0 0 0 0 0 
0 0 0 0 0 0 0 0 0 
0 0 0 0 0 0 0 0 0 
0 0 0 0 0 0 0 0 0 
0 0 0 0 0 0 0 0 0 
0 0 0 0 0 0 0 0 0 
0 0 0 0 0 0 0 0 0 
0 0 0 0 0 0 0 0 0 
0 0 0 0 0 0 0 0 0 
0 0 0 0 0 0 0 0 0 
0 0 0 0 0 0 0 0 0 
0 0 0 0 0 0 0 0 0 
0 0 0 0 0 0 0 0 0 
0 0 0 0 0 0 0 0 0 
0 0 0 0 0 0 0 0 0 
0 0 0 0 0 0 0 0 0 
0 0 0 0 0 0 0 0 0 
0 0 0 0 0 0 0 0 0 
0 0 0 0 0 0 0 0 0 
0 0 0 0 0 0 0 0 0 
0 0 0 0 0 0 0 0 0 
0 0 0 0 0 0 0 0 0 
0 0 0 0 0 0 0 0 0 
0 0 0 0 0 0 0 0 0 
0 0 0 0 0 0 0 0 0 
0 0 0 0 0 0 0 0 0 
0 0 0 0 0 0 0 0 0 
0 0 0 0 0 0 0 0 0 
0 0 0 0 0 0 0 0 0 
0 0 0 0 0 0 0 0 0 
0 0 0 0 0 0 0 0 0 
0 0 0 0 0 0 0 0 0 
0 0 0 0 0 0 0 0 0 
0 0 0 0 0 0 0 0 0 
0 0 0 0 0 0 0 0 0 
0 0 0 0 0 0 0 0 0 
0 0 0 0 0 0 0 0 0 
0 0 0 0 0 0 0 0 0 
0 0 0 0 0 0 0 0 0 
0 0 0 0 0 0 0 0 0 
0 0 0 0 0 0 0 0 0 
0 0 0 0 0 0 0 0 0 
0 0 0 0 0 0 0 0 0 
0 0 0 0 0 0 0 0 0 
0 0 0 0 0 0 0 0 0 
0 0 0 0 0 0 0 0 0 
0 0 0 0 0 0 0 0 0 
0 0 0 0 0 0 0 0 0 
0 0 0 0 0 0 0 0 0 
0 0 0 0 0 0 0 0 0 
0 0 0 0 0 0 0 0 0 
0 0 0 0 0 0 0 0 0 
0 0 0 0 0 0 0 0 0 
0 0 0 0 0 0 0 0 0 
0 0 0 0 0 0 0 0 0 
0 0 0 0 0 0 0 0 0 
0 0 0 0 0 0 0 0 0 
0 0 0 0 0 0 0 0 0 
0 0 0 0 0 0 0 0 0 
0 0 0 0 0 0 0 0 0 
0 0 0 0 0 0 0 0 0 
0 0 0 0 0 0 0 0 0 
0 0 0 0 0 0 0 0 0 
0 0 0 0 0 0 0 0 0 
0 0 0 0 0 0 0 0 0 
0 0 0 0 0 0 0 0 0 
0 0 0 0 0 0 0 0 0 
0 0 0 0 0 0 0 0 0 
0 0 0 0 0 0 0 0 0 
0 0 0 0 0 0 0 0 0 
0 0 0 0 0 0 0 0 0 
0 0 0 0 0 0 0 0 0 
0 0 0 0 0 0 0 0 0 
0 0 0 0 0 0 0 0 0 
0 0 0 0 0 0 0 0 0 
0 0 0 0 0 0 0 0 0 
0 0 0 0 0 0 0 0 0 
0 0 0 0 0 0 0 0 0 
0 0 0 0 0 0 0 0 0 
0 0 0 0 0 0 0 0 0 
0 0 0 0 0 0 0 0 0 
0 0 0 0 0 0 0 0 0 
0 0 0 0 0 0 0 0 0 
0 0 0 0 0 0 0 0 0 
0 0 0 0 0 0 0 0 0 
0 0 0 0 0 0 0 0 0 
0 0 0 0 0 0 0 0 0 
0 0 0 0 0 0 0 0 0 
0 0 0 0 0 0 0 0 0 
0 0 0 0 0 0 0 0 0 
0 0 0 0 0 0 0 0 0 
0 0 0 0 0 0 0 0 0 
0 0 0 0 0 0 0 0 0 
0 0 0 0 0 0 0 0 0 
0 0 0 0 0 0 0 0 0 
0 0 0 0 0 0 0 0 0 
0 0 0 0 0 0 0 0 0 
0 0 0 0 0 0 0 0 0 
0 0 0 0 0 0 0 0 0 
0 0 0 0 0 0 0 0 0 
0 0 0 0 0 0 0 0 0 
0 0 0 0 0 0 0 0 0 
0 0 0 0 0 0 0 0 0 
0 0 0 0 0 0 0 0 0 
0 0 0 0 0 0 0 0 0 
0 0 0 0 0 0 0 0 0 
0 0 0 0 0 0 0 0 0 
0 0 0 0 0 0 0 0 0 
0 0 0 0 0 0 0 0 0 
0 0 0 0 0 0 0 0 0 
0 0 0 0 0 0 0 0 0 
0 0 0 0 0 0 0 0 0 
0 0 0 0 0 0 0 0 0 
0 0 0 0 0 0 0 0 0 
0 0 0 0 0 0 0 0 0 
0 0 0 0 0 0 0 0 0 
0 0 0 0 0 0 0 0 0 
0 0 0 
v 3 847 double
-0.831531 0.10358 -0.354886 -0.715027 0.0327065 -0.306624 -0.936098 -0.00614395 -0.386197 
-0.850135 0.117336 -0.364653 -0.772461 0.0437894 -0.408342 -0.769029 0.0110272 -0.319942 
-1.09333 0.299205 -0.579754 -0.931525 -0.0507589 -1.78871 -1.13028 0.0706817 -1.82768 
-1.05424 0.0128972 -1.794 -1.0994 0.0609424 -1.80306 -1.07806 0.0159724 -1.75811 
-0.957441 0.00412971 -1.76703 -0.981793 -0.03774 -1.77126 -1.0581 -0.260259 -1.75935 
-1.19731 -0.0137659 -1.78766 -0.998607 -0.103271 -1.75459 -0.955503 -0.0809711 -1.74866 
-1.02124 -0.114491 -1.70445 -0.918825 -0.0745457 -1.72887 -0.903137 -0.0626823 -1.71741 
-0.933584 0.0654867 -1.73817 -1.09636 -0.00644754 -1.69828 -1.02462 0.0728468 -1.66992 
-1.1057 -0.0822859 -1.71455 -0.917667 -0.0825723 -1.69646 -1.13785 -0.0769281 -1.68647 
-1.25622 -0.111964 -1.70435 -1.12261 0.112501 -1.65161 -1.10061 -0.0949063 -1.66216 
-0.927815 -0.0557572 -1.64741 -1.20211 0.11334 -1.6434 -0.897172 0.0806651 -1.61117 
-1.00141 -0.0479294 -1.6134 -1.09055 -0.10352 -1.56275 -0.937067 0.00432739 -1.54267 
-0.954853 0.0254883 -1.54814 -0.918801 0.0548237 -1.5383 -0.760905 0.0124987 -1.58045 
-0.990953 0.0356527 -1.55801 -0.865269 0.0872996 -1.54098 -1.07261 0.105866 -1.55314 
-0.935529 -0.0108325 -1.52926 -1.33799 0.0333986 -1.65523 -0.9209 0.0381036 -1.5034 
-0.76392 0.0590105 -1.48639 -0.925343 0.0662725 -1.4916 -0.85201 0.0159211 -1.4825 
-1.13862 -0.0137652 -1.52783 -1.02912 -0.0472918 -1.49781 -0.957283 0.00957379 -1.486 
-0.96573 -0.0302623 -1.46644 -1.2095 0.0876381 -1.55913 -0.935655 -0.0389307 -1.48185 
-1.12071 0.123413 -1.50528 -1.12827 0.0575809 -1.4298 -0.97657 0.060896 -1.47616 
-0.97751 0.0643312 -1.45273 -0.849407 -0.00249987 -1.45587 -1.06094 -0.0753973 -1.42223 
-0.901075 -0.0182385 -1.44695 -1.21787 -0.0518661 -1.49886 -0.934124 -0.0763373 -1.4126 
-1.06876 -0.0317377 -1.44246 -1.04059 -0.0404223 -1.48296 -0.99625 0.0594318 -1.41577 
-1.03471 -0.0487233 -1.44251 -0.854114 0.0622507 -1.40261 -0.662324 -0.0890583 -1.48267 
-1.13952 -0.0299208 -1.45208 -0.937475 0.00207854 -1.49254 -1.13238 0.0979883 -1.3509 
-0.968472 -0.0763169 -1.39246 -0.819169 0.0463987 -1.34458 -0.905419 -0.00201857 -1.5943 
-1.02909 -0.0378351 -1.34752 -0.851679 0.0719661 -1.33128 -1.15658 -0.0380869 -1.397 
-1.08619 -0.00364078 -1.34623 -1.15438 -0.0265574 -1.32139 -0.998687 0.0478707 -1.33548 
-0.843059 0.0562793 -1.31017 -1.22148 -0.159503 -1.45839 -1.13236 0.123357 -1.37832 
-0.942141 -0.0142409 -1.3106 -1.16801 -0.120018 -1.30434 -1.00077 -0.0351216 -1.2996 
-1.13637 -0.0599097 -1.31341 -0.964021 0.000529939 -1.27747 -1.16109 0.0929289 -1.27896 
-0.944002 -0.00261316 -1.2703 -0.815334 0.0221386 -1.30886 -0.815737 0.027157 -1.25545 
-1.24978 -0.162412 -1.34773 -0.828483 -0.171817 -1.27527 -1.1395 0.122618 -1.25185 
-1.10036 0.0211727 -1.2284 -1.0895 0.0920915 -1.2768 -0.897555 -0.0365125 -1.21099 
-1.11361 0.013639 -1.21332 -1.17575 -0.099752 -1.26958 -0.69999 -0.0786664 -1.17205 
-1.0939 0.0603272 -1.17586 -1.10431 0.0400387 -1.19602 -1.21554 -0.15841 -1.16748 
-0.95652 -0.0325731 -1.17873 -0.96795 0.0281804 -1.17892 -1.14008 0.0783112 -1.0518 
-1.02054 -0.000885128 -1.11628 -1.09948 0.050905 -1.07701 -1.11442 -0.0942779 -1.16803 
-1.16571 -0.288707 -1.24405 -1.0012 -0.00625908 -1.12969 -1.03023 -0.0325939 -1.10495 
-1.00241 -0.0354454 -1.09762 -1.11682 0.0692231 -1.13443 -1.04336 -0.0159088 -1.07125 
-1.07785 0.00966422 -1.07556 -1.02319 -0.00675124 -1.08061 -1.05493 -0.0341769 -1.05546 
-1.08108 0.0146906 -1.04845 -0.970163 -0.0787416 -1.0252 -0.927618 -0.0602206 -1.00823 
-1.09945 0.0804293 -0.988765 -1.09474 0.0645417 -0.954193 -1.07604 0.0646384 -0.988183 
-1.15066 0.15227 -0.980465 -0.893744 0.057118 -0.956938 -1.17184 0.130419 -1.19184 
-1.26359 0.0641379 -1.02296 -1.17388 0.319776 -1.08786 -1.04671 0.136552 -0.977558 
-0.932349 -0.0459313 -0.99765 -1.07773 -0.0167849 -0.920214 -1.04894 0.0807352 -0.941706 
-1.1 -0.0339889 -1.13522 -1.13767 0.00659103 -0.880005 -0.978574 0.0524771 -0.918557 
-1.05677 -0.0150435 -0.893325 -1.07203 -0.0363971 -0.922619 -1.12546 0.0102713 -0.852968 
-0.931863 0.0771087 -0.828812 -0.896679 0.0432258 -0.771637 -1.03708 -0.0783032 -0.847401 
-1.09544 -0.0487362 -0.787794 -1.10669 -0.0260321 -0.866074 -1.08304 -0.0300217 -0.890838 
-1.13144 -0.031255 -0.885971 -0.984536 -0.106928 -0.780205 -1.08936 -0.0532732 -0.855681 
-1.05888 -0.0450864 -0.857389 -1.10887 -0.0363477 -0.814531 -1.28902 -0.0814642 -0.878246 
-0.973977 -0.0620074 -0.718312 -0.976038 -0.00339729 -0.766711 -0.968014 -0.0189975 -0.750684 
-0.964239 0.0279976 -0.723842 -0.917413 0.00930895 -0.782137 -1.10426 -0.102396 -0.756452 
-0.938959 0.00363326 -0.757764 -1.1835 0.199189 -0.826483 -0.989407 -0.0182311 -0.713618 
-1.007 -0.035907 -0.780647 -0.924748 -0.032325 -0.678378 -1.08427 0.0145501 -0.575724 
-0.970471 0.0035446 -0.676399 -0.956478 0.00383404 -0.652586 -1.31063 -0.0663258 -0.827567 
-0.98199 -0.0516308 -0.706527 -1.03729 0.0749268 -0.688092 -1.18905 -0.0810139 -0.709736 
-1.02291 -0.0295014 -0.723869 -1.06749 -0.0186179 -0.672627 -1.06557 0.132866 -0.677249 
-1.04286 0.0226398 -0.51258 -1.02826 -0.149685 -0.467949 -0.907248 0.0304185 -0.574112 
-1.20047 -0.123022 -0.717583 -0.848479 -0.00715717 -0.589226 -1.19872 0.129853 -0.779001 
-0.949705 0.0649625 -0.468657 -1.10236 -0.0375367 -0.546909 -1.13832 -0.0904143 -0.434827 
-1.14674 -0.0522817 -0.490809 -1.11331 -0.0954678 -0.501143 -1.09089 -0.646049 -0.754008 
-1.3896 0.106067 -0.782355 -0.999981 0.0595655 -0.387622 -0.945938 -0.0242692 -0.423376 
-0.8153 0.0333776 -0.329812 -1.08289 0.0824468 -0.459818 -0.92654 0.0395277 -0.392523 
-0.908146 0.0265416 -0.383682 -1.21797 -0.403827 -0.537814 -1.04767 0.0183921 -0.433795 
-1.21008 0.213602 -0.524114 -1.06901 0.165209 -0.44094 -1.07634 0.0237545 -0.454668 
-0.920977 0.0221966 -0.466617 -0.922097 -0.0482529 -0.391764 -0.874492 0.0990601 -0.345585 
-1.16031 -0.230871 -0.545821 -1.03621 0.0904443 -0.449622 -1.01582 0.0210556 -0.429055 
-1.00322 -0.0908182 -0.390347 -1.10784 -0.0788482 -0.464999 -1.10375 -0.0634092 -0.469901 
-1.06487 -0.0267767 -0.451089 -0.751708 -0.116875 -0.300974 -0.971555 0.021264 -0.401178 
-0.91959 -0.112063 -0.405702 -0.887818 -0.0205016 -0.37404 -1.08037 -0.166364 -0.502764 
-1.03582 0.0816882 -0.420158 -0.983516 0.0427777 -0.407625 -0.981051 0.0699325 -0.420243 
-0.806075 0.0750839 -0.339278 -1.07764 -0.0677021 -0.459499 -1.0527 -0.0707574 -0.448573 
-1.04075 -0.114501 -0.460768 -0.804789 -0.00977394 -0.329976 -0.994899 0.0428075 -0.512526 
-0.949726 0.0196136 -0.383443 -0.904371 0.0480278 -0.359647 -0.900796 0.0304945 -0.361196 
-0.95253 -0.061939 -0.398168 -1.04485 0.0850772 -0.385524 -1.07424 0.690454 -0.868625 
-0.991908 -0.0173998 -0.404232 -0.927124 0.0201042 -0.390372 -0.869975 0.0598067 -0.374198 
-0.975229 0.0470085 -0.393951 -0.959525 0.0572852 -0.409599 -0.944932 -0.0865668 -0.38528 
-0.887364 0.0269087 -0.378983 -0.997502 0.0685432 -0.426015 -0.706488 -0.0901696 -0.293597 
-0.773626 -0.0271426 -0.49028 -0.857405 -0.0141603 -0.354409 -0.875837 0.0224147 -0.360273 
-0.909986 0.0883769 -0.370631 -0.921231 0.0377897 -0.390121 -0.999759 0.0611817 -0.416712 
-0.946929 0.039621 -0.442303 -0.909888 -0.0258216 -0.364989 -1.17881 -0.0878967 -0.515202 
-0.830941 -0.165258 -0.459525 -0.989861 -0.00851614 -0.380303 -0.942423 0.0222202 -0.399799 
-0.854358 0.0134767 -0.356263 -1.33894 0.156295 -0.508174 -0.867025 -0.0160303 -0.358595 
-0.973431 0.061098 -0.375196 -1.11589 -0.0155447 -0.477109 -0.903335 0.0296059 -0.38074 
-0.878038 0.0196336 -0.370377 -0.953197 0.225708 -0.56967 -0.847754 0.0830148 -0.350729 
-0.946695 -0.0547285 -0.403389 -1.07849 -0.00183723 -0.442083 -1.05246 0.0267244 -0.439539 
-0.867117 -0.0235696 -0.345379 -0.850171 -0.0221241 -0.352706 -0.864294 -0.0309316 -0.329666 
-0.893687 -0.063646 -0.351873 -0.934236 0.0168811 -0.394564 -0.876011 0.0661038 -0.373852 
-1.03743 -0.119086 -0.433902 -0.936192 -0.058013 -0.393474 -0.963825 -0.0223936 -0.407512 
-0.830289 -0.112502 -0.380281 -1.24917 0.0663745 -0.383368 -0.537271 -0.0327479 -0.224558 
-0.741225 0.0773879 -0.296933 -0.755377 0.0561558 -0.32543 -0.990505 0.0754725 -0.405869 
-1.04224 -0.0483747 -0.457395 -0.924264 -0.0730398 -0.345893 -1.12555 0.11765 -0.436078 
-0.751563 -0.0276821 -0.274857 -0.851132 -0.0539212 -0.368003 -0.857572 0.0489939 -0.355385 
-1.15332 -0.16242 -0.528546 -1.11929 0.0807111 -0.46124 -0.734754 0.0181857 -0.289822 
-0.818019 -0.0727724 -0.33851 -0.939731 0.054712 -0.426551 -0.990517 0.05383 -0.40812 
-0.604035 -0.0847311 -0.259324 -0.663239 -0.113485 -0.312065 -0.692036 0.0248713 -0.29318 
-0.679798 -0.00915743 -0.271689 -0.653083 -0.0474864 -0.265744 -0.860768 0.023609 -0.353851 
-0.962204 0.0698673 -0.386102 -1.03162 0.00945216 -0.410335 -0.991085 0.0142727 -0.408185 
-0.924136 -0.0352862 -0.398212 -0.782085 0.0124683 -0.322567 -0.95027 0.0514816 -0.41346 
-0.781855 0.0467064 -0.328598 -0.840258 0.0713948 -0.357917 -0.696592 -0.055888 -0.299638 
-0.669574 0.0113742 -0.379134 -0.822813 -0.0570826 -0.319419 -0.84948 -0.0670223 -0.321987 
-0.837465 0.0953519 -0.320907 -0.940316 0.0161832 -0.397622 -0.797945 0.0448787 -0.336749 