# vtk DataFile Version 4.0
Generated by LIGGGHTS
ASCII
DATASET POLYDATA
POINTS 684 float
-0.486724 0.000449203 -0.375939 -0.465968 0.00079957 -0.358685 -0.489149 -0.0447104 -0.357121 
-0.471618 0.0309749 -0.354748 -0.453972 0.0237735 -0.341665 -0.437018 -0.0016735 -0.338307 
-0.457429 0.0297719 -0.337471 -0.450052 0.0337146 -0.338735 -0.435822 0.0180135 -0.326855 
-0.421077 -0.0356586 -0.313659 -0.435885 0.014056 -0.316532 -0.431461 -0.0284643 -0.307623 
-0.410102 -0.019208 -0.303107 -0.416538 -0.0102712 -0.306092 -0.414703 0.0227828 -0.304025 
-0.401019 0.0127267 -0.301739 -0.411341 0.0204936 -0.298962 -0.403785 -0.0268096 -0.298929 
-0.405945 0.0141257 -0.297239 -0.39649 -0.00619263 -0.292317 -0.402221 0.00738043 -0.29446 
-0.395236 -0.00671499 -0.288394 -0.384786 0.00261974 -0.281494 -0.382925 0.0112538 -0.282388 
-0.391887 0.0265587 -0.280758 -0.39394 0.0324252 -0.281676 -0.402112 -0.0431821 -0.280347 
-0.380377 -0.0137187 -0.276946 -0.371652 -0.00374606 -0.281387 -0.38498 0.0161775 -0.277787 
-0.396822 0.0514066 -0.278043 -0.377302 0.00158846 -0.275134 -0.380291 -0.00614671 -0.27347 
-0.372827 0.0155041 -0.270819 -0.373071 -0.025857 -0.267879 -0.369242 0.00356883 -0.268081 
-0.364735 0.00253257 -0.264844 -0.369618 0.0122843 -0.26573 -0.366022 0.0231179 -0.263712 
-0.356538 -0.00145559 -0.260504 -0.35284 0.00289184 -0.258783 -0.355445 -0.0128989 -0.255978 
-0.349323 -0.0092055 -0.255841 -0.35179 -0.0227342 -0.253605 -0.342722 -0.00964474 -0.25248 
-0.345739 0.000760069 -0.253923 -0.349045 0.00457768 -0.2544 -0.345403 0.0104168 -0.253081 
-0.384525 -0.0560229 -0.248816 -0.340005 -0.0121571 -0.246969 -0.335492 -0.0106973 -0.247192 
-0.339617 -0.00754416 -0.249542 -0.338549 0.00215636 -0.24866 -0.347689 0.0264293 -0.249999 
-0.340927 -0.0109909 -0.243953 -0.325172 -0.000475438 -0.243222 -0.330138 0.00282485 -0.245572 
-0.327653 0.0042181 -0.244174 -0.333304 0.0200161 -0.244864 -0.343004 0.0254956 -0.246757 
-0.335848 -0.0276489 -0.242644 -0.328551 -0.0186061 -0.242748 -0.32649 -0.0159184 -0.242358 
-0.322633 -0.0123594 -0.240326 -0.322248 -0.00850778 -0.241486 -0.319193 -0.00161687 -0.24068 
-0.318557 0.0017098 -0.240361 -0.348224 0.0418181 -0.244013 -0.327836 -0.0281907 -0.239009 
-0.314513 -0.0115434 -0.23793 -0.315812 0.00244266 -0.239143 -0.317711 0.012762 -0.239306 
-0.323783 0.0263177 -0.239149 -0.304518 -0.0115334 -0.233853 -0.307131 0.00933896 -0.233981 
-0.303157 0.00848873 -0.233443 -0.305079 0.0128335 -0.233948 -0.324269 0.0314832 -0.235773 
-0.300035 -0.0148565 -0.230515 -0.300448 -0.0102806 -0.230883 -0.297975 -0.00766553 -0.231514 
-0.294707 -0.00535813 -0.229133 -0.286995 -0.00930635 -0.226726 -0.283833 -0.00753078 -0.225556 
-0.297886 0.0256213 -0.227478 -0.307683 -0.04767 -0.22384 -0.288421 -0.0275399 -0.224158 
-0.288158 -0.0217717 -0.224341 -0.279403 -0.0209972 -0.221918 -0.284138 -0.017854 -0.224485 
-0.278649 -0.0169463 -0.222363 -0.286614 -0.0131089 -0.224942 -0.282047 -0.0109343 -0.224469 
-0.290539 -0.00981327 -0.224465 -0.275105 -0.00488663 -0.221964 -0.284538 -0.00316886 -0.224887 
-0.280755 -0.000340175 -0.223094 -0.28382 0.00546347 -0.225479 -0.28138 0.00764774 -0.224314 
-0.283926 0.0132845 -0.223969 -0.282829 0.0218243 -0.223082 -0.29156 -0.0401151 -0.221304 
-0.288774 -0.0350258 -0.22093 -0.275491 -0.0177671 -0.220894 -0.26993 -0.0105321 -0.21943 
-0.270683 0.00294171 -0.220119 -0.274458 0.00619134 -0.22046 -0.270896 0.00997801 -0.219845 
-0.268002 0.00846823 -0.2187 -0.273488 0.0124823 -0.220773 -0.272458 0.0152975 -0.218666 
-0.286868 0.0309599 -0.221363 -0.281077 0.0280846 -0.220482 -0.283779 0.0334026 -0.220495 
-0.274591 -0.0279232 -0.218396 -0.270631 -0.0252456 -0.217446 -0.265871 -0.0200262 -0.216389 
-0.261943 -0.0171037 -0.215319 -0.267124 -0.0107882 -0.218222 -0.259424 -0.0113537 -0.214935 
-0.265087 0.00794411 -0.217502 -0.259887 0.00981258 -0.215226 -0.262015 0.0138571 -0.215708 
-0.267783 0.0141414 -0.2181 -0.264866 0.0202499 -0.215904 -0.291656 -0.0536234 -0.214238 
-0.26011 -0.0164344 -0.212934 -0.256329 -0.0174747 -0.212904 -0.264922 -0.0113483 -0.21418 
-0.25547 -0.0124668 -0.213131 -0.261254 -0.00953332 -0.213091 -0.254321 0.00228358 -0.213228 
-0.251646 0.00642554 -0.211919 -0.259641 -0.0366481 -0.20957 -0.258004 -0.0315954 -0.209429 
-0.251865 -0.029397 -0.208491 -0.250099 -0.0215503 -0.209528 -0.247641 -0.0182333 -0.207848 
-0.248373 -0.011465 -0.210251 -0.249855 -0.00578514 -0.211275 -0.247337 0.0019577 -0.209185 
-0.243291 0.00282761 -0.208394 -0.254317 0.0299256 -0.209403 -0.250805 -0.0362499 -0.205708 
-0.269576 -0.020451 -0.206172 -0.234096 0.00568935 -0.204189 -0.241718 0.0124964 -0.20735 
-0.237818 0.0153571 -0.204231 -0.260053 0.0469215 -0.204662 -0.238174 -0.0367955 -0.200796 
-0.229422 -0.0125254 -0.202079 -0.227687 -0.00585118 -0.200805 -0.232171 -0.00305312 -0.202882 
-0.232014 0.0111059 -0.202336 -0.233116 0.0220954 -0.201322 -0.232558 0.0268342 -0.201187 
-0.24384 0.040696 -0.200644 -0.266212 0.0590832 -0.201199 -0.223404 -0.011028 -0.199644 
-0.22333 -0.00403277 -0.199141 -0.216181 -0.00485831 -0.197181 -0.218854 0.00337926 -0.197127 
-0.219925 0.00841087 -0.197474 -0.229439 0.017658 -0.200376 -0.227338 -0.0381168 -0.194838 
-0.220607 -0.0264159 -0.196183 -0.22904 -0.0163721 -0.196429 -0.213839 -0.0129793 -0.195465 
-0.220916 -0.00823467 -0.196471 -0.213548 -0.00698984 -0.194817 -0.210877 -1.70283e-06 -0.193771 
-0.21385 0.00531351 -0.196072 -0.212359 0.0104373 -0.19517 -0.216193 0.0148499 -0.196239 
-0.21747 0.025818 -0.195132 -0.211123 -0.0158484 -0.191466 -0.205297 -0.0106794 -0.192076 
-0.220714 0.000396342 -0.194431 -0.215765 -0.00232036 -0.194067 -0.204207 -0.00285008 -0.192076 
-0.204837 0.00135518 -0.192325 -0.204235 0.0064353 -0.190913 -0.23372 0.0149355 -0.190706 
-0.20554 0.025688 -0.190148 -0.210982 -0.0427787 -0.186604 -0.217933 -0.00577412 -0.188215 
-0.228294 0.0104612 -0.184565 -0.223798 0.0260479 -0.184848 -0.228832 0.0577142 -0.186842 
-0.216849 0.0569686 -0.183814 -0.204775 0.0618015 -0.176697 -0.220457 0.0666829 -0.179371 
-0.20361 -0.014486 -0.190978 -0.202941 0.0186233 -0.189192 -0.202813 0.0506946 -0.181567 
-0.202179 0.0108395 -0.189241 -0.0833323 0.0512177 -0.127417 -0.198184 -0.00943769 -0.188177 
-0.19768 -0.00413127 -0.188188 -0.199849 0.000418868 -0.189128 -0.195455 0.000193674 -0.188343 
-0.197818 0.00496151 -0.188277 -0.192529 0.00647482 -0.187117 -0.195907 0.00848531 -0.188376 
-0.193197 0.00941644 -0.186189 -0.0582867 0.0311006 -0.12783 -0.0471391 -0.0057862 -0.125772 
-0.186498 -0.00903394 -0.18446 -0.188844 -0.00584482 -0.185514 -0.19254 -0.00194489 -0.186036 
-0.185062 0.00545111 -0.184024 -0.196648 -0.0430813 -0.180675 -0.191247 -0.0325651 -0.182699 
-0.186367 -0.0319542 -0.179686 -0.181925 -0.0180119 -0.181506 -0.180806 -0.0104474 -0.181943 
-0.178576 -0.00827479 -0.181086 -0.180948 -0.00477791 -0.181065 -0.177187 0.00746259 -0.180515 
-0.182051 0.0153188 -0.181879 -0.184375 0.0187578 -0.182539 -0.184942 0.0249693 -0.181674 
-0.0763918 0.0400393 -0.130791 -0.185661 -0.040642 -0.178154 -0.173096 -0.0222152 -0.176141 
-0.171359 -0.0120528 -0.17673 -0.17011 -0.00447974 -0.177652 -0.178464 -0.000115113 -0.17983 
-0.164853 0.000225826 -0.175506 -0.176484 0.00372516 -0.179351 -0.173776 0.00677984 -0.17769 
-0.170797 0.00619509 -0.177899 -0.184623 0.00808963 -0.179583 -0.17066 0.00989957 -0.177534 
-0.176467 0.011014 -0.178753 -0.175839 0.0270896 -0.177089 -0.176302 0.035258 -0.176011 
-0.186388 0.039527 -0.178764 -0.167346 -0.0200447 -0.175205 -0.163808 -0.0152889 -0.173285 
-0.159945 -0.014358 -0.172811 -0.169628 -0.0115365 -0.172085 -0.16531 -0.0109998 -0.175316 
-0.157954 -0.0120584 -0.172185 -0.156347 -0.00417879 -0.171928 -0.160947 -0.00265932 -0.173806 
-0.165532 0.00887927 -0.175487 -0.167402 0.0119207 -0.173703 -0.16686 0.0177895 -0.175301 
-0.163691 0.0185036 -0.172835 -0.169525 0.0302128 -0.174211 -0.169455 0.0364067 -0.172827 
-0.156399 -0.0160689 -0.171078 -0.150913 -0.0150888 -0.168955 -0.154864 -0.012537 -0.169667 
-0.154739 -0.00878121 -0.171034 -0.152909 -0.00212047 -0.170489 -0.157853 0.00273863 -0.171389 
-0.153147 0.00243387 -0.169493 -0.150093 0.0121842 -0.168762 -0.160031 0.0187191 -0.16832 
-0.158933 0.0224264 -0.170796 -0.178606 0.0252352 -0.169248 -0.157103 0.0277336 -0.169514 
-0.17075 -0.0516227 -0.168189 -0.14736 -0.0219919 -0.166597 -0.149941 -0.0207147 -0.167871 
-0.145249 -0.0150653 -0.16654 -0.156126 -0.0136196 -0.165678 -0.143544 -0.0125358 -0.166068 
-0.149039 -0.00620894 -0.167662 -0.158222 0.00102243 -0.166426 -0.146601 0.000664297 -0.167797 
-0.141147 0.00144478 -0.165496 -0.141371 0.00784684 -0.165352 -0.142216 0.0107324 -0.165657 
-0.168248 0.0152556 -0.165801 -0.147293 0.0144631 -0.166275 -0.167674 0.0231498 -0.168102 
-0.154891 0.0320201 -0.167789 -0.155638 0.036079 -0.167224 -0.146935 -0.0332595 -0.164316 
-0.143301 -0.0225252 -0.164625 -0.147147 -0.0193425 -0.164902 -0.137367 -0.0180135 -0.162937 
-0.138656 -0.0140241 -0.163844 -0.151258 -0.0123814 -0.164334 -0.141663 -0.00736275 -0.164564 
-0.136112 -0.00708366 -0.163268 -0.139225 -0.00388869 -0.164703 -0.137014 0.00157785 -0.162713 
-0.139569 0.00436866 -0.164736 -0.138863 0.0105909 -0.163129 -0.134468 0.0083847 -0.161306 
-0.138829 0.0156173 -0.162657 -0.146983 0.0248293 -0.164884 -0.143249 0.0299031 -0.163341 
-0.154739 0.0336009 -0.162181 -0.137215 -0.035773 -0.159658 -0.131526 -0.0236173 -0.159667 
-0.133058 -0.018798 -0.159936 -0.135109 -0.014121 -0.161283 -0.127768 -0.00957559 -0.158536 
-0.14116 -0.00681757 -0.160662 -0.129706 -0.00433985 -0.160671 -0.133511 -0.000809219 -0.158833 
-0.127094 -0.00262524 -0.159626 -0.13055 0.0078999 -0.160782 -0.131541 0.0125683 -0.160985 
-0.135666 0.0196621 -0.160771 -0.13371 -0.0370768 -0.157922 -0.130485 -0.0326323 -0.156483 
-0.119703 -0.014429 -0.155865 -0.122711 -0.0106233 -0.156308 -0.118585 -0.00804528 -0.154513 
-0.114855 -0.00498681 -0.154411 -0.1235 -0.00191128 -0.157024 -0.118782 -0.000462065 -0.155015 
[...]
POINT_DATA 684
FIELD FieldData 7
id 1 684 int
16 30 34 31 3 19 26 68 32 
2 27 108 99 7 1 22 5 33 
21 6 60 23 13 36 28 11 58 
10 142 41 38 57 92 8 79 40 
101 130 48 54 42 4 63 67 53 
46 14 44 126 88 83 49 29 59 
162 134 122 45 43 93 76 20 62 
15 50 100 87 75 104 18 85 148 
72 132 51 70 71 114 116 181 69 
17 84 35 177 163 61 52 74 109 
12 166 47 192 156 64 77 158 174 
154 37 147 39 94 96 145 65 73 
55 133 82 91 233 146 120 112 245 
125 111 138 25 150 118 95 98 81 
175 187 167 200 188 136 157 137 176 
86 110 89 196 182 244 143 222 231 
103 257 274 66 139 159 186 78 90 
227 80 198 140 124 144 128 209 153 
127 105 268 232 203 224 204 228 202 
121 135 97 113 171 170 234 246 123 
185 141 270 161 165 281 304 327 216 
265 183 201 194 215 238 178 463 191 
117 243 155 164 239 259 262 353 453 
218 211 102 180 230 287 129 119 219 
252 152 260 131 206 271 401 290 205 
214 149 302 236 282 309 314 277 220 
151 278 258 199 275 189 251 254 208 
250 284 172 289 279 288 318 223 210 
212 221 115 106 207 190 307 160 293 
184 292 299 347 315 286 249 295 169 
193 272 308 345 310 197 300 266 342 
311 325 320 312 337 313 225 317 217 
235 168 240 333 269 305 267 256 323 
301 107 365 179 229 253 372 247 379 
285 322 261 242 348 355 321 241 316 
273 331 329 226 280 352 213 324 373 
237 381 358 328 374 248 335 297 330 
349 291 380 389 264 283 370 173 392 
332 319 294 255 413 346 303 344 371 
338 326 378 334 354 350 405 336 391 
296 359 276 376 394 388 400 341 395 
298 384 396 393 306 367 385 382 339 
362 404 398 403 351 409 412 340 415 
386 375 369 383 432 408 343 363 402 
387 364 419 397 414 446 407 410 356 
441 360 377 437 425 430 426 479 390 
478 411 417 477 406 418 452 368 428 
399 450 427 480 435 416 421 431 357 
422 434 460 675 684 469 445 366 429 
490 443 500 677 475 195 464 433 361 
504 494 524 424 513 476 442 482 472 
448 465 495 436 449 486 489 532 455 
522 457 514 487 493 517 447 423 420 
526 528 492 474 444 499 511 468 440 
523 498 519 438 506 439 466 518 525 
481 483 507 503 509 540 501 458 529 
538 462 467 470 520 485 542 491 527 
497 534 516 461 459 502 535 531 543 
473 508 484 505 454 510 521 471 530 
488 512 545 539 537 496 515 544 451 
541 550 533 553 536 263 549 555 551 
546 557 554 556 456 552 548 547 565 
563 570 558 561 560 568 567 566 559 
569 562 564 578 577 583 573 580 582 
572 571 575 576 574 581 594 579 596 
593 591 592 586 588 589 585 584 595 
590 587 602 607 608 603 601 600 604 
597 599 605 606 619 609 621 598 617 
618 614 620 615 622 616 611 613 610 
630 612 628 623 634 625 635 632 627 
629 626 633 624 631 639 637 638 645 
647 644 642 641 648 636 643 646 658 
654 640 650 659 655 660 651 656 653 
649 652 661 657 672 663 667 674 670 
665 671 669 668 673 662 682 664 680 
679 685 666 687 683 676 686 681 678 

type 1 684 int
1 1 1 1 1 1 1 1 1 
1 1 1 1 1 1 1 1 1 
1 1 1 1 1 1 1 1 1 
1 1 1 1 1 1 1 1 1 
1 1 1 1 1 1 1 1 1 
1 1 1 1 1 1 1 1 1 
1 1 1 1 1 1 1 1 1 
1 1 1 1 1 1 1 1 1 
1 1 1 1 1 1 1 1 1 
1 1 1 1 1 1 1 1 1 
1 1 1 1 1 1 1 1 1 
1 1 1 1 1 1 1 1 1 
1 1 1 1 1 1 1 1 1 
1 1 1 1 1 1 1 1 1 
1 1 1 1 1 1 1 1 1 
1 1 1 1 1 1 1 1 1 
1 1 1 1 1 1 1 1 1 
1 1 1 1 1 1 1 1 1 
1 1 1 1 1 1 1 1 1 
1 1 1 1 1 1 1 1 1 
1 1 1 1 1 1 1 1 1 
1 1 1 1 1 1 1 1 1 
1 1 1 1 1 1 1 1 1 
1 1 1 1 1 1 1 1 1 
1 1 1 1 1 1 1 1 1 
1 1 1 1 1 1 1 1 1 
1 1 1 1 1 1 1 1 1 
1 1 1 1 1 1 1 1 1 
1 1 1 1 1 1 1 1 1 
1 1 1 1 1 1 1 1 1 
1 1 1 1 1 1 1 1 1 
1 1 1 1 1 1 1 1 1 
1 1 1 1 1 1 1 1 1 
1 1 1 1 1 1 1 1 1 
1 1 1 1 1 1 1 1 1 
1 1 1 1 1 1 1 1 1 
1 1 1 1 1 1 1 1 1 
1 1 1 1 1 1 1 1 1 
1 1 1 1 1 1 1 1 1 
1 1 1 1 1 1 1 1 1 
1 1 1 1 1 1 1 1 1 
1 1 1 1 1 1 1 1 1 
1 1 1 1 1 1 1 1 1 
1 1 1 1 1 1 1 1 1 
1 1 1 1 1 1 1 1 1 
1 1 1 1 1 1 1 1 1 
1 1 1 1 1 1 1 1 1 
1 1 1 1 1 1 1 1 1 
1 1 1 1 1 1 1 1 1 
1 1 1 1 1 1 1 1 1 
1 1 1 1 1 1 1 1 1 
1 1 1 1 1 1 1 1 1 
1 1 1 1 1 1 1 1 1 
1 1 1 1 1 1 1 1 1 
1 1 1 1 1 1 1 1 1 
1 1 1 1 1 1 1 1 1 
1 1 1 1 1 1 1 1 1 
1 1 1 1 1 1 1 1 1 
1 1 1 1 1 1 1 1 1 
1 1 1 1 1 1 1 1 1 
1 1 1 1 1 1 1 1 1 
1 1 1 1 1 1 1 1 1 
1 1 1 1 1 1 1 1 1 
1 1 1 1 1 1 1 1 1 
1 1 1 1 1 1 1 1 1 
1 1 1 1 1 1 1 1 1 
1 1 1 1 1 1 1 1 1 
1 1 1 1 1 1 1 1 1 
1 1 1 1 1 1 1 1 1 
1 1 1 1 1 1 1 1 1 
1 1 1 1 1 1 1 1 1 
1 1 1 1 1 1 1 1 1 
1 1 1 1 1 1 1 1 1 
1 1 1 1 1 1 1 1 1 
1 1 1 1 1 1 1 1 1 
1 1 1 1 1 1 1 1 1 

i 3 684 int
0 0 0 0 0 0 0 0 0 
0 0 0 0 0 0 0 0 0 
0 0 0 0 0 0 0 0 0 
0 0 0 0 0 0 0 0 0 
0 0 0 0 0 0 0 0 0 
0 0 0 0 0 0 0 0 0 
0 0 0 0 0 0 0 0 0 
0 0 0 0 0 0 0 0 0 
0 0 0 0 0 0 0 0 0 
0 0 0 0 0 0 0 0 0 
0 0 0 0 0 0 0 0 0 
0 0 0 0 0 0 0 0 0 
0 0 0 0 0 0 0 0 0 
0 0 0 0 0 0 0 0 0 
0 0 0 0 0 0 0 0 0 
0 0 0 0 0 0 0 0 0 
0 0 0 0 0 0 0 0 0 
0 0 0 0 0 0 0 0 0 
0 0 0 0 0 0 0 0 0 
0 0 0 0 0 0 0 0 0 
0 0 0 0 0 0 0 0 0 
0 0 0 0 0 0 0 0 0 
0 0 0 0 0 0 0 0 0 
0 0 0 0 0 0 0 0 0 
0 0 0 0 0 0 0 0 0 
0 0 0 0 0 0 0 0 0 
0 0 0 0 0 0 0 0 0 
0 0 0 0 0 0 0 0 0 
0 0 0 0 0 0 0 0 0 
0 0 0 0 0 0 0 0 0 
0 0 0 0 0 0 0 0 0 
0 0 0 0 0 0 0 0 0 
0 0 0 0 0 0 0 0 0 
0 0 0 0 0 0 0 0 0 
0 0 0 0 0 0 0 0 0 
0 0 0 0 0 0 0 0 0 
0 0 0 0 0 0 0 0 0 
0 0 0 0 0 0 0 0 0 
0 0 0 0 0 0 0 0 0 
0 0 0 0 0 0 0 0 0 
0 0 0 0 0 0 0 0 0 
0 0 0 0 0 0 0 0 0 
0 0 0 0 0 0 0 0 0 
0 0 0 0 0 0 0 0 0 
0 0 0 0 0 0 0 0 0 
0 0 0 0 0 0 0 0 0 
0 0 0 0 0 0 0 0 0 
0 0 0 0 0 0 0 0 0 
0 0 0 0 0 0 0 0 0 
0 0 0 0 0 0 0 0 0 
0 0 0 0 0 0 0 0 0 
0 0 0 0 0 0 0 0 0 
0 0 0 0 0 0 0 0 0 
0 0 0 0 0 0 0 0 0 
0 0 0 0 0 0 0 0 0 
0 0 0 0 0 0 0 0 0 
0 0 0 0 0 0 0 0 0 
0 0 0 0 0 0 0 0 0 
0 0 0 0 0 0 0 0 0 
0 0 0 0 0 0 0 0 0 
0 0 0 0 0 0 0 0 0 
0 0 0 0 0 0 0 0 0 
0 0 0 0 0 0 0 0 0 
0 0 0 0 0 0 0 0 0 
0 0 0 0 0 0 0 0 0 
0 0 0 0 0 0 0 0 0 
0 0 0 0 0 0 0 0 0 
0 0 0 0 0 0 0 0 0 
0 0 0 0 0 0 0 0 0 
0 0 0 0 0 0 0 0 0 
0 0 0 0 0 0 0 0 0 
0 0 0 0 0 0 0 0 0 
0 0 0 0 0 0 0 0 0 
0 0 0 0 0 0 0 0 0 
0 0 0 0 0 0 0 0 0 
0 0 0 0 0 0 0 0 0 
0 0 0 0 0 0 0 0 0 
0 0 0 0 0 0 0 0 0 
0 0 0 0 0 0 0 0 0 
0 0 0 0 0 0 0 0 0 
0 0 0 0 0 0 0 0 0 
0 0 0 0 0 0 0 0 0 
0 0 0 0 0 0 0 0 0 
0 0 0 0 0 0 0 0 0 
0 0 0 0 0 0 0 0 0 
0 0 0 0 0 0 0 0 0 
0 0 0 0 0 0 0 0 0 
0 0 0 0 0 0 0 0 0 
0 0 0 0 0 0 0 0 0 
0 0 0 0 0 0 0 0 0 
0 0 0 0 0 0 0 0 0 
0 0 0 0 0 0 0 0 0 
0 0 0 0 0 0 0 0 0 
0 0 0 0 0 0 0 0 0 
0 0 0 0 0 0 0 0 0 
0 0 0 0 0 0 0 0 0 
0 0 0 0 0 0 0 0 0 
0 0 0 0 0 0 0 0 0 
0 0 0 0 0 0 0 0 0 
0 0 0 0 0 0 0 0 0 
0 0 0 0 0 0 0 0 0 
0 0 0 0 0 0 0 0 0 
0 0 0 0 0 0 0 0 0 
0 0 0 0 0 0 0 0 0 
0 0 0 0 0 0 0 0 0 
0 0 0 0 0 0 0 0 0 
0 0 0 0 0 0 0 0 0 
0 0 0 0 0 0 0 0 0 
0 0 0 0 0 0 0 0 0 
0 0 0 0 0 0 0 0 0 
0 0 0 0 0 0 0 0 0 
0 0 0 0 0 0 0 0 0 
0 0 0 0 0 0 0 0 0 
0 0 0 0 0 0 0 0 0 
0 0 0 0 0 0 0 0 0 
0 0 0 0 0 0 0 0 0 
0 0 0 0 0 0 0 0 0 
0 0 0 0 0 0 0 0 0 
0 0 0 0 0 0 0 0 0 
0 0 0 0 0 0 0 0 0 
0 0 0 0 0 0 0 0 0 
0 0 0 0 0 0 0 0 0 
0 0 0 0 0 0 0 0 0 
0 0 0 0 0 0 0 0 0 
0 0 0 0 0 0 0 0 0 
0 0 0 0 0 0 0 0 0 
0 0 0 0 0 0 0 0 0 
0 0 0 0 0 0 0 0 0 
0 0 0 0 0 0 0 0 0 
0 0 0 0 0 0 0 0 0 
0 0 0 0 0 0 0 0 0 
0 0 0 0 0 0 0 0 0 
0 0 0 0 0 0 0 0 0 
0 0 0 0 0 0 0 0 0 
0 0 0 0 0 0 0 0 0 
0 0 0 0 0 0 0 0 0 
0 0 0 0 0 0 0 0 0 
0 0 0 0 0 0 0 0 0 
0 0 0 0 0 0 0 0 0 
0 0 0 0 0 0 0 0 0 
0 0 0 0 0 0 0 0 0 
0 0 0 0 0 0 0 0 0 
0 0 0 0 0 0 0 0 0 
0 0 0 0 0 0 0 0 0 
0 0 0 0 0 0 0 0 0 
0 0 0 0 0 0 0 0 0 
0 0 0 0 0 0 0 0 0 
0 0 0 0 0 0 0 0 0 
0 0 0 0 0 0 0 0 0 
0 0 0 0 0 0 0 0 0 
0 0 0 0 0 0 0 0 0 
0 0 0 0 0 0 0 0 0 
0 0 0 0 0 0 0 0 0 
0 0 0 0 0 0 0 0 0 
0 0 0 0 0 0 0 0 0 
0 0 0 0 0 0 0 0 0 
0 0 0 0 0 0 0 0 0 
0 0 0 0 0 0 0 0 0 
0 0 0 0 0 0 0 0 0 
0 0 0 0 0 0 0 0 0 
0 0 0 0 0 0 0 0 0 
0 0 0 0 0 0 0 0 0 
0 0 0 0 0 0 0 0 0 
0 0 0 0 0 0 0 0 0 
0 0 0 0 0 0 0 0 0 
0 0 0 0 0 0 0 0 0 
0 0 0 0 0 0 0 0 0 
0 0 0 0 0 0 0 0 0 
0 0 0 0 0 0 0 0 0 
0 0 0 0 0 0 0 0 0 
0 0 0 0 0 0 0 0 0 
0 0 0 0 0 0 0 0 0 
0 0 0 0 0 0 0 0 0 
0 0 0 0 0 0 0 0 0 
0 0 0 0 0 0 0 0 0 
0 0 0 0 0 0 0 0 0 
0 0 0 0 0 0 0 0 0 
0 0 0 0 0 0 0 0 0 
0 0 0 0 0 0 0 0 0 
0 0 0 0 0 0 0 0 0 
0 0 0 0 0 0 0 0 0 
0 0 0 0 0 0 0 0 0 
0 0 0 0 0 0 0 0 0 
0 0 0 0 0 0 0 0 0 
0 0 0 0 0 0 0 0 0 
0 0 0 0 0 0 0 0 0 
0 0 0 0 0 0 0 0 0 
0 0 0 0 0 0 0 0 0 
0 0 0 0 0 0 0 0 0 
0 0 0 0 0 0 0 0 0 
0 0 0 0 0 0 0 0 0 
0 0 0 0 0 0 0 0 0 
0 0 0 0 0 0 0 0 0 
0 0 0 0 0 0 0 0 0 
0 0 0 0 0 0 0 0 0 
0 0 0 0 0 0 0 0 0 
0 0 0 0 0 0 0 0 0 
0 0 0 0 0 0 0 0 0 
0 0 0 0 0 0 0 0 0 
0 0 0 0 0 0 0 0 0 
0 0 0 0 0 0 0 0 0 
0 0 0 0 0 0 0 0 0 
0 0 0 0 0 0 0 0 0 
0 0 0 0 0 0 0 0 0 
0 0 0 0 0 0 0 0 0 
0 0 0 0 0 0 0 0 0 
0 0 0 0 0 0 0 0 0 
0 0 0 0 0 0 0 0 0 
0 0 0 0 0 0 0 0 0 
0 0 0 0 0 0 0 0 0 
0 0 0 0 0 0 0 0 0 
0 0 0 0 0 0 0 0 0 
0 0 0 0 0 0 0 0 0 
0 0 0 0 0 0 0 0 0 
0 0 0 0 0 0 0 0 0 
0 0 0 0 0 0 0 0 0 
0 0 0 0 0 0 0 0 0 
0 0 0 0 0 0 0 0 0 
0 0 0 0 0 0 0 0 0 
0 0 0 0 0 0 0 0 0 
0 0 0 0 0 0 0 0 0 
0 0 0 0 0 0 0 0 0 
0 0 0 0 0 0 0 0 0 
0 0 0 0 0 0 0 0 0 
0 0 0 0 0 0 0 0 0 
0 0 0 0 0 0 0 0 0 
0 0 0 0 0 0 0 0 0 
0 0 0 0 0 0 0 0 0 

v 3 684 double
-1.38458 0.0121135 -1.71958 -1.31226 0.152563 -1.61515 -1.39956 0.0102656 -1.64565 
-1.33504 -0.0723053 -1.62734 -1.35171 0.195162 -1.51469 -1.14656 0.0761887 -1.45872 
-1.34235 -0.114898 -1.54185 -1.2104 -0.111715 -1.56017 -1.29371 0.154395 -1.40011 
-1.12274 0.0154003 -1.34243 -1.37864 0.0410424 -1.44492 -1.34684 0.255768 -1.36786 
-1.29568 0.280331 -1.34782 -1.28265 -0.0239591 -1.23944 -1.26435 0.0221371 -1.28118 
-1.14007 0.0619945 -1.21291 -1.25753 0.0630385 -1.16069 -1.18685 -0.0202596 -1.21397 
-1.27086 -0.0159577 -1.18042 -1.17123 0.0260053 -1.1218 -1.17479 0.0230187 -1.10839 
-1.20375 0.00503665 -1.06037 -1.21196 0.0390049 -1.01873 -1.08435 0.0642844 -1.00447 
-1.2302 0.00574051 -1.04303 -1.22067 0.0285474 -1.04844 -1.28551 0.102613 -1.14366 
-1.116 0.019221 -0.948492 -1.36559 -0.0590547 -1.36229 -1.24643 -0.117866 -1.03101 
-1.0323 0.152826 -0.988281 -1.22662 -0.116708 -0.96747 -1.34796 0.269572 -1.00732 
-1.22068 -0.298572 -0.995307 -1.10241 -0.0910185 -0.864758 -1.19979 -0.0555813 -0.894365 
-1.20344 -0.0768672 -0.859681 -1.37075 -0.249623 -0.955866 -1.19319 -0.0892842 -0.866995 
-1.08092 -0.0613343 -0.773342 -1.07951 0.0100131 -0.736141 -1.31844 0.0999611 -0.772358 
-0.973525 -0.054984 -0.690804 -1.27485 0.17461 -0.82066 -0.950694 -0.0282768 -0.672905 
-1.1745 -0.054974 -0.698834 -1.20031 -0.116061 -0.732806 -1.16531 -0.100774 -0.693532 
-1.19839 0.239857 -1.00401 -1.00125 -0.056749 -0.524776 -1.13593 0.0982091 -0.566025 
-1.21623 0.0824053 -0.63513 -1.16483 0.0470791 -0.627061 -1.277 -0.273313 -0.765909 
-1.07355 0.0243757 -0.512562 -0.897524 -0.017237 -0.392644 -0.913346 -0.0732549 -0.47825 
-1.08484 0.0562598 -0.505876 -1.14832 -0.0493155 -0.579871 -1.11646 -0.190801 -0.585559 
-1.22816 0.208558 -0.634806 -1.15392 0.253472 -0.557596 -1.16496 0.313566 -0.559048 
-1.1648 0.0288654 -0.458801 -1.15005 0.0318508 -0.466645 -1.0753 0.00624244 -0.454155 
-1.0738 0.0380468 -0.450203 -1.27791 -0.159827 -0.742236 -1.24862 0.224029 -0.590331 
-1.09985 -0.0273227 -0.469843 -1.04065 -0.024956 -0.447698 -1.1149 -0.114409 -0.476063 
-1.0697 -0.178245 -0.482387 -1.02914 -0.151098 -0.416361 -1.1008 0.035694 -0.46303 
-1.11512 -0.0431614 -0.473413 -1.11451 0.0675234 -0.473672 -1.25689 0.0342867 -0.52779 
-0.983237 -0.0152042 -0.411424 -1.16178 -0.0507698 -0.84846 -1.0764 0.00871577 -0.454194 
-1.0713 0.0146821 -0.452316 -0.899913 0.0192429 -0.380132 -0.835841 0.0307593 -0.35352 
-1.16657 -0.0291962 -0.48086 -1.19456 0.296769 -0.599871 -1.11125 0.0591442 -0.448686 
-0.999247 -0.0480275 -0.397226 -0.909569 0.0366112 -0.386357 -0.651206 -0.00742257 -0.270675 
-0.945083 0.0954008 -0.412199 -0.983448 0.068064 -0.465193 -0.995441 0.0194712 -0.420962 
-1.09506 -0.0318158 -0.678081 -0.894906 -0.0161116 -0.375227 -1.01222 0.0403889 -0.429841 
-1.02957 0.0630463 -0.377915 -1.09541 0.103682 -0.455028 -1.07095 0.093504 -0.436784 
-1.18227 -0.100307 -0.48244 -1.08533 -0.0423388 -0.480443 -1.08162 -0.0111279 -0.371608 
-1.01288 -0.00642411 -0.416074 -0.925699 0.056429 -0.394547 -0.969385 0.0686341 -0.412631 
-0.937645 -0.0468914 -0.401439 -0.956013 -0.0227361 -0.394232 -0.844781 -0.0359951 -0.368638 
-1.03276 -0.0409019 -0.434283 -0.857601 0.00581916 -0.374549 -0.956161 0.0732679 -0.337351 
-0.867395 0.0590555 -0.32861 -0.784284 -0.0492518 -0.399221 -1.25793 0.00252048 -0.494172 
-1.1504 0.150984 -0.547844 -0.805921 -0.0389488 -0.330613 -1.19036 -0.0215585 -0.582443 
-0.715623 -0.0214889 -0.299736 -0.95685 0.114735 -0.419234 -1.08552 -0.163499 -0.434104 
-0.997501 0.0135186 -0.428037 -0.933705 -0.0371448 -0.392431 -1.04834 -0.0299348 -0.439544 
-1.05702 -0.0367675 -0.4523 -1.11862 -0.118187 -0.482633 -1.08148 0.334176 -0.62009 
-0.790608 0.0173879 -0.275413 -0.814401 -0.0592745 -0.332651 -0.992768 0.13013 -0.415818 
-1.03009 -0.138654 -0.458857 -0.955724 0.175348 -0.486799 -0.990319 -0.0694186 -0.424217 
-1.11184 -0.0773035 -0.475179 -1.01467 0.242623 -0.50209 -1.02007 0.0547488 -0.401395 
-0.862745 0.230429 -0.452879 -1.03571 0.211864 -0.494541 -1.03558 -0.0652057 -0.415052 
-0.936547 0.15494 -0.417702 -1.02539 0.0225232 -0.435844 -1.02524 0.166429 -0.422165 
-0.917147 -0.0150126 -0.382619 -1.12088 -0.030633 -0.476041 -1.11703 -0.0821103 -0.417539 
-0.831998 -0.0824634 -0.351136 -0.87489 0.193311 -0.368484 -1.0187 -0.0577901 -0.429653 
-0.955178 -0.053999 -0.413448 -1.00586 -0.00407816 -0.397498 -1.0539 -0.0149591 -0.449326 
-0.872074 0.00228883 -0.371648 -0.882653 -0.00855238 -0.365294 -0.892233 0.0249262 -0.372943 
-0.82708 0.00595623 -0.34733 -1.02658 -0.0341381 -0.428355 -0.785594 0.0986701 -0.291769 
-0.884794 -9.914e-08 -0.356214 -1.02366 -0.265524 -0.523536 -0.80943 -0.132548 -0.337815 
-0.89649 -0.0635038 -0.362773 -0.848405 0.130854 -0.363529 -0.760821 -0.0248232 -0.317797 
-0.914794 -0.0388975 -0.381621 -0.996923 0.0186477 -0.410455 -1.10864 -0.155065 -0.380691 
-0.901723 -0.103853 -0.341869 -0.997842 -0.147229 -0.376898 -0.774322 -0.0441295 -0.326847 
-0.859813 -0.0513145 -0.355334 -0.892678 0.0648994 -0.365983 -0.819005 0.0663389 -0.351101 
-0.858195 -0.00716733 -0.366398 -0.888953 0.0882958 -0.356518 -0.822398 0.00621149 -0.341098 
-0.897628 -0.163951 -0.416869 -0.942255 -0.0160329 -0.463737 -0.891754 -0.0329592 -0.365469 
-1.21758 0.317365 -0.641162 -1.14014 0.0606934 -0.702413 -0.773645 -0.073366 -0.331525 
-0.739205 -0.0222176 -0.30707 -0.806112 -0.00929977 -0.338575 -1.08769 0.00294689 -0.457938 
-0.845616 -0.0302268 -0.351604 -0.903955 0.0195318 -0.36502 -1.15942 0.198165 -0.455323 
-1.4231 -0.13074 -0.755462 -1.02611 0.170517 -0.776495 -1.06424 -0.199224 -0.519786 
-0.748819 -0.143636 -0.356804 -0.781142 -0.0738884 -0.383702 -0.985516 -0.301113 -0.60815 
-0.929762 -0.0491722 -0.379548 -0.85486 -0.111924 -0.366934 -1.04794 -0.0182208 -0.425217 
-0.894232 0.0638277 -0.292961 -0.912858 0.295066 -0.514504 -0.890114 -0.0287126 -0.367227 
-0.797635 -0.0742745 -0.344877 -0.734183 -0.0177871 -0.314546 -0.70934 -0.0487207 -0.295842 
-0.792992 0.0191061 -0.329542 -0.61205 -0.0659759 -0.28403 -0.786924 -0.0382813 -0.340298 
-0.790484 -0.0292148 -0.313353 -0.389555 -0.0576786 -0.171106 -0.445902 0.158035 -0.189261 
-0.764989 -0.023649 -0.326994 -0.782542 -0.0913435 -0.334199 -0.846719 -0.0707585 -0.35291 
-0.861556 0.00109658 -0.359277 -0.831917 0.045553 -0.345881 -0.927787 -0.130264 -0.361871 
-0.758828 0.0790655 -0.326373 -0.752633 0.284982 -0.344468 -0.690427 -0.0310207 -0.280966 
-0.762464 0.035968 -0.321898 -0.821096 -0.015116 -0.343327 -0.732255 0.0725626 -0.324817 
-0.832896 -0.000259611 -0.347696 -0.814284 0.0214494 -0.337848 -0.683391 -0.00169824 -0.288018 
-0.663574 0.129718 -0.693179 -1.037 -0.0547979 -0.413703 -0.854575 -0.0692618 -0.37083 
-0.650209 -0.0865693 -0.286863 -0.710849 0.0238644 -0.292939 -0.934733 -0.000532115 -0.681384 
-0.564147 0.0728808 -0.24433 -0.871688 0.0366494 -0.379453 -0.674074 -0.0252733 -0.236068 
-0.953353 0.0467826 -0.400494 -1.25017 0.0617535 -0.511153 -0.856571 -0.0879174 -0.364708 
-0.896292 -0.0670081 -0.386884 -0.803593 0.053576 -0.375243 -0.870531 0.141921 -0.330891 
-0.847375 -0.0883742 -0.380458 -0.854983 -0.0769942 -0.329359 -0.721892 -0.0592279 -0.295028 
-0.724926 0.0285603 -0.274777 -0.698072 -0.0780068 -0.269965 -0.672137 0.0181622 -0.280165 
-0.726572 -0.0162199 -0.300163 -0.640508 0.0184247 -0.263358 -0.58228 0.0282193 -0.248925 
-0.795049 0.145892 -0.340002 -0.855145 0.0845468 -0.535966 -0.758097 0.194835 -0.300361 
-0.868847 0.0745246 -0.365947 -1.01255 0.231895 -0.41967 -0.891222 -0.0288499 -0.384002 
-0.793441 -0.0689809 -0.335682 -0.676591 -0.0386945 -0.276186 -0.734139 -0.0765829 -0.309052 
-0.614228 -0.0618828 -0.259242 -0.691773 -0.0452071 -0.285171 -0.78598 -0.0743893 -0.33484 
-0.68085 0.0261328 -0.254659 -0.561063 0.0964383 -0.218301 -1.04962 -0.0645066 -0.130192 
-0.811109 0.104786 -0.163934 -1.05368 0.0855229 -0.0581205 -0.828872 0.0553303 -0.33794 
-1.09103 -0.033067 -0.414467 -0.685917 -0.0064232 -0.291305 -0.66582 -0.148975 -0.256889 
-0.702836 -0.00935936 -0.299324 -1.11278 -0.076165 -0.320372 -0.706655 0.000750473 -0.302065 
-0.753512 0.00349135 -0.313007 -1.02161 0.166315 -0.524396 -0.758945 0.0303612 -0.335018 
-0.595727 0.0292104 -0.243929 -0.615511 0.0242758 -0.264963 -0.620922 0.0285696 -0.268167 
-0.939632 0.16724 -0.409482 -0.727704 -0.00680639 -0.298127 -0.982782 0.130554 -0.686671 
-0.721467 0.00824207 -0.298416 -0.772091 0.0340015 -0.309092 -0.767023 -0.172531 -0.285284 
-0.734973 -0.103689 -0.316654 -1.07915 -0.0803746 -0.711189 -0.662234 -0.0329146 -0.271051 
-0.719618 0.0135968 -0.299157 -0.792257 -0.0130251 -0.535371 -0.682061 -0.00715364 -0.323464 
-0.714018 0.0166222 -0.300997 -0.664826 -0.0032978 -0.284509 -0.667373 -0.0187225 -0.275001 
-0.61923 0.0744167 -0.250214 -0.591131 0.0311026 -0.242806 -0.619473 -0.0433771 -0.264847 
-0.587056 0.0339839 -0.248457 -0.76991 0.0708904 -0.31519 -0.703389 -0.064387 -0.323795 
-0.805306 0.00941371 -0.235199 -0.748744 0.314582 -0.378677 -0.69896 -0.120631 -0.274724 
-0.603568 0.0264779 -0.260977 -0.732389 -0.0297358 -0.30019 -0.591515 -0.0559065 -0.248995 
-1.18204 0.0600446 -0.138581 -0.630147 -0.0360655 -0.260983 -0.629458 -0.0237115 -0.286766 
-0.618323 -0.0310825 -0.256753 -0.576516 0.0865353 -0.205863 -0.756597 -0.107501 -0.333633 
-0.609719 0.0903725 -0.254915 -0.854806 -0.131206 -0.324484 -0.878493 0.0140692 -0.328452 
-0.59077 -0.139864 -0.238143 -0.610737 -0.0970129 -0.248999 -0.629493 0.0337835 -0.319386 
-0.510087 -0.00752589 -0.213164 -0.558197 -0.0263281 -0.239024 -0.59074 -0.0640261 -0.243445 
-0.614345 -0.0681054 -0.263453 -0.707847 -0.126476 -0.298435 -0.635059 0.048983 -0.259867 
-0.731064 -0.0522052 -0.315306 -0.785722 -0.0831494 -0.345264 -0.750235 0.128789 -0.334731 
-0.53786 -0.000297409 -0.22445 -0.842462 -0.0146975 -0.461464 -0.85881 -0.155732 -0.450435 
-0.58845 -0.0364945 -0.244501 -0.556813 -0.0546744 -0.23835 -0.523012 -0.0363988 -0.154173 
-0.528645 -0.00124131 -0.222235 -0.721216 -0.0649113 -0.35941 -0.614073 -0.015221 -0.199504 
-0.647854 -0.00920127 -0.282641 -0.539467 -0.0900099 -0.230693 -0.721419 0.0669094 -0.284912 
-0.748828 0.102485 -0.305563 -0.691721 0.0963723 -0.290335 -0.802975 -0.146627 -0.114281 
-0.792739 0.170033 -0.303745 -0.588775 -0.0097509 -0.251983 -0.704826 0.154638 -0.132688 
-0.762717 -0.0526014 -0.328415 -0.749745 -0.0185313 -0.31393 -0.598993 0.0563848 -0.224622 
-0.678658 0.109409 -0.306892 -0.925457 0.000283645 -0.817613 -0.805838 0.0231037 -0.836863 
-0.732586 -0.081339 -0.301923 -0.947523 0.0319526 -0.382457 -0.556706 0.00600347 -0.236508 
-0.639219 -0.0430424 -0.213987 -0.583192 0.071094 -0.244222 -1.09253 -0.275826 -0.347917 
-0.648967 0.0561761 -0.273849 -0.712456 -0.0988751 -0.310024 -0.703647 -0.0621357 -0.281329 
-0.749914 -0.0304638 -0.307151 -0.694485 -0.122313 -0.283635 -0.88823 0.107322 -0.476977 
-0.726863 0.215376 -0.310684 -0.689297 -0.0190259 -0.343459 -0.489602 0.0595959 -0.211103 
-0.843633 -0.223266 -0.687047 -0.719834 -0.0531875 -0.319816 -0.696931 -0.180148 -0.0372122 
-0.836795 0.326922 -0.30245 -0.874535 -0.0669522 -0.269991 -0.576189 -0.101954 -0.240602 
-0.489101 0.0551037 -0.20171 -0.704511 -0.0696942 -0.123353 -0.863763 0.134388 -0.142566 
-0.7543 -0.11178 -0.717368 -0.692628 0.0521041 -0.635825 -0.743708 0.172859 -0.228122 
-0.549937 -0.128065 -0.235564 -0.584013 -0.113885 -0.220387 -0.64628 0.0253226 -0.270842 
-0.585227 0.139889 -0.170805 -0.702758 0.29934 -0.248831 -0.618334 -0.361692 -0.249543 