# vtk DataFile Version 4.0
Generated by LIGGGHTS
ASCII
DATASET POLYDATA
POINTS 788 float
-0.202935 -0.000202569 -0.191536 -0.204633 0.00956091 -0.191874 -0.203756 -0.0218623 -0.190226 
-0.487998 0.00250928 -0.400033 -0.480659 0.00790001 -0.398167 -0.485684 -0.00220476 -0.393097 
-0.479212 0.00221788 -0.391201 -0.474076 0.0012842 -0.389253 -0.475909 0.0058469 -0.386586 
-0.473399 0.0139996 -0.388614 -0.462158 -0.0190805 -0.383997 -0.479301 -0.00385377 -0.382503 
-0.469329 0.0123175 -0.383781 -0.468615 0.0223366 -0.383568 -0.443316 -0.0080384 -0.380842 
-0.436626 -2.53659e-05 -0.376029 -0.458253 0.0130079 -0.37498 -0.462459 -0.00463955 -0.371644 
-0.477609 0.0356662 -0.37317 -0.464441 -0.00895552 -0.370009 -0.456234 0.00309445 -0.369305 
-0.45411 0.00472011 -0.371041 -0.449206 0.00166917 -0.362159 -0.451788 -0.0143799 -0.357477 
-0.456894 -0.00680542 -0.357319 -0.444433 -0.000835622 -0.359894 -0.449779 -0.00321815 -0.352732 
-0.44533 0.0130838 -0.349691 -0.443892 0.00251026 -0.34771 -0.445513 0.0202225 -0.347414 
-0.430738 -0.00934714 -0.343407 -0.432533 -0.00332175 -0.338532 -0.445342 0.0194988 -0.339834 
-0.436447 -0.0275349 -0.336592 -0.432606 -0.00246661 -0.330938 -0.426359 -0.0143323 -0.330292 
-0.436245 0.000955738 -0.329163 -0.431423 -0.0158343 -0.323823 -0.417332 0.000795467 -0.324831 
-0.423249 -0.0278349 -0.322063 -0.44633 -0.0232938 -0.321456 -0.422054 -0.0125461 -0.320555 
-0.424289 0.0123582 -0.320913 -0.421071 0.017643 -0.318402 -0.419458 -0.0229884 -0.314803 
-0.414043 -0.00453681 -0.315092 -0.416016 0.00376398 -0.314874 -0.42005 -0.0264056 -0.311095 
-0.426523 -0.0024678 -0.311728 -0.409128 -0.00447219 -0.310657 -0.402471 0.00142122 -0.308869 
-0.409991 0.00896252 -0.310402 -0.394214 -0.0247151 -0.301897 -0.395421 -0.0110326 -0.303928 
-0.398651 4.56526e-05 -0.302535 -0.402253 0.00184229 -0.302021 -0.386498 0.00124229 -0.304829 
-0.391699 0.0058071 -0.302727 -0.398705 -0.00455414 -0.299503 -0.39202 0.0103787 -0.299912 
-0.394376 0.01555 -0.300462 -0.396223 0.0273744 -0.299027 -0.391953 -0.0121958 -0.295198 
-0.388986 -0.0052663 -0.295576 -0.395949 -0.000186616 -0.296201 -0.399455 0.0068096 -0.294413 
-0.391934 0.00640266 -0.293785 -0.396059 0.0109732 -0.297013 -0.39329 0.012921 -0.294679 
-0.403314 0.0178655 -0.294088 -0.404479 0.0201324 -0.295784 -0.399739 -0.00303261 -0.293408 
-0.388835 -0.000890909 -0.29282 -0.387401 0.00503373 -0.291433 -0.386102 0.013919 -0.292512 
-0.403407 0.0487318 -0.290519 -0.401422 -0.0255243 -0.285819 -0.406413 -0.0234267 -0.288728 
-0.390144 -0.0182079 -0.288126 -0.387588 0.00335303 -0.287323 -0.388685 0.0068177 -0.28875 
-0.398035 -0.0357774 -0.285051 -0.386397 -0.00678439 -0.283474 -0.386902 0.00130726 -0.283629 
-0.379329 -0.00335265 -0.279388 -0.370021 0.00605807 -0.281509 -0.387092 0.0202817 -0.281438 
-0.393449 0.0331465 -0.280884 -0.376013 -0.0158367 -0.276641 -0.371743 -0.0117688 -0.275261 
-0.390933 0.00171895 -0.275796 -0.373302 0.0105417 -0.277524 -0.381577 -0.0257547 -0.27193 
-0.367097 -0.00729795 -0.27364 -0.371079 -0.0219077 -0.269843 -0.365743 -0.0164021 -0.26925 
-0.364727 -0.00989276 -0.26808 -0.378303 0.00372903 -0.269727 -0.368659 -4.85987e-05 -0.270648 
-0.371721 0.00439328 -0.270333 -0.368905 0.00844253 -0.26988 -0.373531 0.0133901 -0.268744 
-0.351748 -0.000245997 -0.266327 -0.367165 0.0136414 -0.265525 -0.369795 0.0239342 -0.265123 
-0.360997 -0.00331807 -0.262 -0.358364 0.00204776 -0.260434 -0.359913 0.00842591 -0.261536 
-0.363164 0.0229644 -0.262364 -0.375934 -0.0412116 -0.25853 -0.358337 -0.0266593 -0.256646 
-0.35246 -0.00902207 -0.258216 -0.354243 -0.00479582 -0.257352 -0.347367 -0.00850821 -0.253004 
-0.349345 0.00177919 -0.254917 -0.343661 0.000374799 -0.253051 -0.348886 0.0178651 -0.253453 
-0.345009 0.0214452 -0.25214 -0.346921 -0.0279851 -0.249588 -0.342784 0.0177826 -0.249905 
-0.343369 0.0252171 -0.249436 -0.347274 0.0328602 -0.248795 -0.340714 -0.0269469 -0.24605 
-0.334079 -0.0195129 -0.245253 -0.337873 -0.0116128 -0.247532 -0.336047 -0.00481785 -0.246976 
-0.332165 0.00193616 -0.246597 -0.330579 0.00567215 -0.244315 -0.331378 0.00959339 -0.245907 
-0.32865 0.00937161 -0.244552 -0.335498 0.0132903 -0.247381 -0.334142 0.0114494 -0.245075 
-0.337028 -0.0259366 -0.243711 -0.331476 -0.0187274 -0.243593 -0.323964 -0.0145824 -0.241585 
-0.398934 -0.0134132 -0.239913 -0.32328 -0.00893812 -0.240803 -0.323519 -0.00303334 -0.242354 
-0.325815 0.00489003 -0.242195 -0.325933 0.0103759 -0.241704 -0.325821 0.0143705 -0.242784 
-0.327631 0.0186276 -0.24245 -0.328581 0.0226096 -0.242125 -0.315296 -0.00607665 -0.238835 
-0.314137 -0.0029288 -0.238499 -0.311422 -0.00221849 -0.237008 -0.31625 0.00353682 -0.238187 
-0.321601 0.0123954 -0.239882 -0.314367 0.0142507 -0.237658 -0.317501 -0.0252899 -0.235534 
-0.308619 -0.0121861 -0.234344 -0.313556 -0.00937611 -0.236721 -0.312345 0.0060887 -0.236381 
-0.307879 0.0167485 -0.234462 -0.318149 -0.0375416 -0.232853 -0.307081 -0.022849 -0.23297 
-0.303026 -0.0133547 -0.233025 -0.298704 -0.0100439 -0.23157 -0.299158 0.0103677 -0.231636 
-0.298499 0.0141888 -0.231047 -0.30244 0.0160339 -0.232332 -0.314985 0.032374 -0.233491 
-0.308665 -0.0368824 -0.229304 -0.29585 -0.0226014 -0.227297 -0.296405 -0.0133913 -0.229136 
-0.294694 -0.00868195 -0.228793 -0.290218 -0.00718172 -0.227098 -0.293324 -0.000816432 -0.228706 
-0.28923 0.00161613 -0.228007 -0.285639 0.00387369 -0.226347 -0.290938 0.00718573 -0.228371 
-0.299678 0.0205725 -0.229197 -0.294595 0.0238246 -0.227564 -0.300704 0.0352743 -0.226769 
-0.288982 -0.0225423 -0.225624 -0.281277 -0.0131342 -0.223908 -0.278348 -0.0122974 -0.222765 
-0.284901 -0.0059578 -0.22605 -0.283753 -0.00324242 -0.225406 -0.284287 -0.000336877 -0.225987 
-0.277009 0.00312281 -0.222766 -0.280785 0.00651625 -0.223051 -0.28648 0.0163881 -0.225633 
-0.291584 0.0263268 -0.225869 -0.301176 0.0313148 -0.226424 -0.302863 0.0389734 -0.226395 
-0.271992 -0.00992061 -0.220358 -0.275358 -0.00197918 -0.222167 -0.274555 0.00441511 -0.221171 
-0.270667 0.0132843 -0.219427 -0.276532 0.0218846 -0.219364 -0.280995 0.0271272 -0.221252 
-0.277472 0.0272058 -0.219742 -0.265718 -0.0231098 -0.215811 -0.273144 -0.0170986 -0.218951 
-0.26344 -0.00324669 -0.217106 -0.293328 -0.000388922 -0.220304 -0.269084 0.00942754 -0.217885 
-0.260915 0.0116456 -0.215575 -0.26383 0.0161342 -0.216111 -0.270813 0.0238471 -0.2178 
-0.268302 0.0244625 -0.216264 -0.265338 0.0243089 -0.215316 -0.272187 -0.0361149 -0.214867 
-0.265466 -0.0191484 -0.215363 -0.258151 -0.0164622 -0.213793 -0.259681 -0.0126123 -0.213704 
-0.260775 -0.00753795 -0.214722 -0.256805 -0.00691814 -0.214151 -0.257026 -0.00380464 -0.214015 
-0.259364 -0.000165946 -0.214385 -0.261825 0.019976 -0.213592 -0.257568 0.0208133 -0.212772 
-0.2659 0.0293933 -0.214337 -0.254227 -0.0300163 -0.209424 -0.251929 -0.0147155 -0.211333 
-0.244552 -0.0144409 -0.208221 -0.248365 -0.0131895 -0.208787 -0.25402 -0.00974442 -0.211761 
-0.249093 -0.00828435 -0.210829 -0.244485 -0.00993026 -0.208781 -0.24971 -0.00393186 -0.2113 
-0.247627 -0.000512982 -0.209408 -0.243644 -0.00205518 -0.208835 -0.2433 0.00102462 -0.208604 
-0.244832 0.00525549 -0.209092 -0.244297 0.00911184 -0.208719 -0.254427 0.0213293 -0.210254 
-0.256051 0.0256167 -0.211284 -0.257366 -0.0411035 -0.207025 -0.254652 -0.0398769 -0.206324 
-0.251145 -0.027147 -0.20775 -0.246982 -0.0230543 -0.207931 -0.240725 -0.0208792 -0.205773 
-0.243586 -0.0199433 -0.207055 -0.241602 -0.0134957 -0.205553 -0.241185 -0.00938304 -0.207371 
-0.237 -0.00978651 -0.205479 -0.245896 -0.00675536 -0.20675 -0.237731 -0.00681197 -0.206026 
-0.240669 -0.00235154 -0.207575 -0.235454 0.00768566 -0.205063 -0.236759 0.0103583 -0.20552 
-0.244018 0.0159589 -0.206721 -0.243624 0.0204016 -0.207015 -0.233228 -0.024327 -0.201877 
-0.236364 -0.0169069 -0.204635 -0.231155 -0.0146148 -0.201547 -0.233632 -0.00906196 -0.204106 
-0.235605 -0.00225407 -0.204365 -0.232039 0.00150243 -0.202744 -0.236348 0.00382227 -0.20448 
-0.226372 0.00680085 -0.20127 -0.230451 0.00866348 -0.202946 -0.23802 0.021235 -0.20458 
-0.234712 -0.0299047 -0.201354 -0.228624 -0.0271037 -0.198325 -0.223582 -0.0223905 -0.198323 
-0.236138 -0.0189118 -0.202447 -0.22769 -0.0137026 -0.199327 -0.225347 -0.00977152 -0.200588 
-0.219306 -0.00925073 -0.198042 -0.226398 -0.00500097 -0.200335 -0.22083 -0.00628899 -0.198977 
-0.223767 0.000296935 -0.199233 -0.219025 0.00830279 -0.198182 -0.228132 0.0110707 -0.200693 
-0.222086 0.0107989 -0.199251 -0.229225 0.016002 -0.200503 -0.222232 0.0147148 -0.198834 
-0.22881 0.0211134 -0.199668 -0.229998 0.0260857 -0.198926 -0.213498 -0.0189752 -0.194694 
-0.217727 -0.0123736 -0.195958 -0.20965 -0.00615151 -0.194357 -0.21142 -0.00174731 -0.195005 
-0.217821 0.0136472 -0.197083 -0.215144 0.0163629 -0.194543 -0.218551 0.0186396 -0.196778 
-0.21442 0.0207852 -0.194816 -0.223937 0.0214874 -0.197601 -0.220026 -0.0374439 -0.192122 
-0.214701 -0.0271134 -0.193622 -0.206662 -0.0190654 -0.19176 -0.211659 -0.0100086 -0.193739 
-0.207203 -0.00846478 -0.19201 -0.215697 -0.00383203 -0.194347 -0.20564 -0.0037549 -0.191377 
-0.205756 0.00561865 -0.190663 -0.208888 0.0090225 -0.192751 -0.211855 0.0186042 -0.194009 
-0.21468 0.0290972 -0.192097 -0.21059 -0.0312637 -0.190956 -0.2062 -0.0306663 -0.189244 
-0.205579 -0.01301 -0.190701 -0.211406 -0.0100622 -0.189704 -0.211463 0.00117483 -0.190331 
-0.21419 0.0378671 -0.189619 -0.216044 -0.0036529 -0.178401 -0.201087 0.012164 -0.190159 
-0.201203 0.0239472 -0.188715 -0.20053 0.00802572 -0.190299 -0.20061 -0.0296665 -0.186102 
-0.0510157 0.0133943 -0.125992 -0.0574582 0.0308324 -0.12734 -0.0519479 0.0222142 -0.126206 
-0.195692 -0.0152411 -0.187559 -0.192896 -0.00832572 -0.187185 -0.198767 -0.00450612 -0.188655 
-0.194582 -0.00144701 -0.186888 -0.199326 0.00296328 -0.189836 -0.0761359 -0.022317 -0.125864 
-0.0458358 -0.00295192 -0.125326 -0.0554162 -0.0155292 -0.125985 -0.0745699 0.00616088 -0.128076 
-0.1948 -0.0232669 -0.186162 -0.197221 -0.0190188 -0.184748 -0.192141 -0.0167745 -0.18587 
[...]
POINT_DATA 788
FIELD FieldData 7
id 1 788 int
226 411 237 49 29 76 93 83 162 
43 88 104 20 62 122 134 45 50 
114 15 148 72 87 18 163 85 100 
51 70 71 181 69 177 132 17 116 
154 61 158 147 81 192 37 174 52 
166 64 39 120 47 84 77 74 109 
12 65 167 35 156 95 82 91 112 
94 145 157 73 133 98 222 124 96 
55 25 233 146 138 245 137 150 118 
231 200 188 111 136 244 139 176 175 
103 274 159 89 110 125 86 182 143 
66 270 80 187 105 140 196 90 201 
216 268 203 186 78 128 127 113 281 
257 232 227 198 327 171 144 204 228 
246 153 135 121 234 97 165 194 224 
304 191 170 202 178 161 238 265 123 
209 185 141 215 277 230 102 117 164 
199 347 287 211 218 259 131 206 183 
290 205 129 152 282 243 155 239 262 
151 278 223 275 119 302 252 314 260 
180 293 271 210 292 258 219 149 220 
309 342 300 299 295 214 208 372 279 
236 289 272 288 184 337 189 212 115 
254 251 250 190 318 301 325 286 221 
249 317 193 106 169 172 341 284 308 
207 160 256 311 320 348 355 297 312 
315 229 107 225 217 235 168 310 197 
266 323 413 313 179 346 344 240 307 
345 333 324 365 255 425 338 359 379 
378 280 247 305 283 269 261 267 213 
242 319 321 253 376 285 322 380 352 
264 370 381 403 373 241 316 330 331 
354 384 389 332 350 405 303 391 306 
294 396 173 392 402 406 575 635 590 
248 358 329 291 388 630 569 656 564 
336 393 328 335 374 426 367 326 334 
441 296 371 273 349 394 415 429 395 
377 414 298 362 339 386 276 448 428 
447 504 424 400 419 369 383 356 401 
404 535 432 409 385 382 468 457 442 
407 423 439 463 437 399 410 398 360 
452 430 472 387 438 513 475 443 467 
351 408 473 343 470 465 500 466 481 
458 390 440 357 397 490 446 502 421 
484 460 363 434 479 375 412 427 340 
469 480 417 478 431 483 195 523 418 
422 451 433 492 364 368 510 453 353 
525 496 464 476 518 455 482 471 540 
505 488 435 462 450 416 494 533 508 
454 515 366 512 495 507 541 558 509 
459 461 618 568 522 361 420 514 545 
529 563 444 491 503 445 474 530 528 
537 449 436 543 489 487 501 497 527 
498 589 531 559 538 566 542 572 573 
526 493 511 532 546 594 554 599 550 
576 506 524 548 584 516 477 486 520 
603 519 565 577 551 602 556 552 521 
534 609 549 578 581 485 582 553 570 
517 561 547 562 588 580 596 586 544 
555 539 597 627 595 574 536 616 624 
621 567 842 833 634 636 587 831 653 
591 557 593 832 837 585 835 838 839 
600 499 623 637 650 841 592 644 649 
660 583 665 611 625 607 681 658 641 
615 648 456 683 640 657 610 622 571 
638 619 676 629 598 626 682 614 654 
680 604 647 645 608 646 612 655 642 
651 697 633 685 601 677 579 675 631 
673 662 661 639 664 628 693 617 672 
670 606 620 666 671 698 663 613 667 
674 669 678 632 684 686 668 652 687 
263 659 691 689 695 643 679 688 605 
694 699 696 692 700 690 708 710 705 
560 706 712 702 713 709 703 701 711 
707 704 717 725 716 720 719 722 723 
721 715 718 724 714 726 738 730 735 
728 734 732 727 729 736 737 731 739 
733 744 750 749 752 743 745 748 741 
742 746 747 740 751 758 755 763 761 
756 764 757 759 762 760 753 754 776 
769 768 775 772 766 771 767 773 774 
770 765 777 788 785 784 783 789 787 
790 786 781 782 780 778 796 791 795 
779 799 792 802 797 794 801 803 798 
793 810 800 815 808 814 809 811 804 
813 812 816 805 807 806 827 821 825 
823 828 829 817 824 826 819 822 818 
830 836 820 840 834 
type 1 788 int
1 1 1 1 1 1 1 1 1 
1 1 1 1 1 1 1 1 1 
1 1 1 1 1 1 1 1 1 
1 1 1 1 1 1 1 1 1 
1 1 1 1 1 1 1 1 1 
1 1 1 1 1 1 1 1 1 
1 1 1 1 1 1 1 1 1 
1 1 1 1 1 1 1 1 1 
1 1 1 1 1 1 1 1 1 
1 1 1 1 1 1 1 1 1 
1 1 1 1 1 1 1 1 1 
1 1 1 1 1 1 1 1 1 
1 1 1 1 1 1 1 1 1 
1 1 1 1 1 1 1 1 1 
1 1 1 1 1 1 1 1 1 
1 1 1 1 1 1 1 1 1 
1 1 1 1 1 1 1 1 1 
1 1 1 1 1 1 1 1 1 
1 1 1 1 1 1 1 1 1 
1 1 1 1 1 1 1 1 1 
1 1 1 1 1 1 1 1 1 
1 1 1 1 1 1 1 1 1 
1 1 1 1 1 1 1 1 1 
1 1 1 1 1 1 1 1 1 
1 1 1 1 1 1 1 1 1 
1 1 1 1 1 1 1 1 1 
1 1 1 1 1 1 1 1 1 
1 1 1 1 1 1 1 1 1 
1 1 1 1 1 1 1 1 1 
1 1 1 1 1 1 1 1 1 
1 1 1 1 1 1 1 1 1 
1 1 1 1 1 1 1 1 1 
1 1 1 1 1 1 1 1 1 
1 1 1 1 1 1 1 1 1 
1 1 1 1 1 1 1 1 1 
1 1 1 1 1 1 1 1 1 
1 1 1 1 1 1 1 1 1 
1 1 1 1 1 1 1 1 1 
1 1 1 1 1 1 1 1 1 
1 1 1 1 1 1 1 1 1 
1 1 1 1 1 1 1 1 1 
1 1 1 1 1 1 1 1 1 
1 1 1 1 1 1 1 1 1 
1 1 1 1 1 1 1 1 1 
1 1 1 1 1 1 1 1 1 
1 1 1 1 1 1 1 1 1 
1 1 1 1 1 1 1 1 1 
1 1 1 1 1 1 1 1 1 
1 1 1 1 1 1 1 1 1 
1 1 1 1 1 1 1 1 1 
1 1 1 1 1 1 1 1 1 
1 1 1 1 1 1 1 1 1 
1 1 1 1 1 1 1 1 1 
1 1 1 1 1 1 1 1 1 
1 1 1 1 1 1 1 1 1 
1 1 1 1 1 1 1 1 1 
1 1 1 1 1 1 1 1 1 
1 1 1 1 1 1 1 1 1 
1 1 1 1 1 1 1 1 1 
1 1 1 1 1 1 1 1 1 
1 1 1 1 1 1 1 1 1 
1 1 1 1 1 1 1 1 1 
1 1 1 1 1 1 1 1 1 
1 1 1 1 1 1 1 1 1 
1 1 1 1 1 1 1 1 1 
1 1 1 1 1 1 1 1 1 
1 1 1 1 1 1 1 1 1 
1 1 1 1 1 1 1 1 1 
1 1 1 1 1 1 1 1 1 
1 1 1 1 1 1 1 1 1 
1 1 1 1 1 1 1 1 1 
1 1 1 1 1 1 1 1 1 
1 1 1 1 1 1 1 1 1 
1 1 1 1 1 1 1 1 1 
1 1 1 1 1 1 1 1 1 
1 1 1 1 1 1 1 1 1 
1 1 1 1 1 1 1 1 1 
1 1 1 1 1 1 1 1 1 
1 1 1 1 1 1 1 1 1 
1 1 1 1 1 1 1 1 1 
1 1 1 1 1 1 1 1 1 
1 1 1 1 1 1 1 1 1 
1 1 1 1 1 1 1 1 1 
1 1 1 1 1 1 1 1 1 
1 1 1 1 1 1 1 1 1 
1 1 1 1 1 1 1 1 1 
1 1 1 1 1 1 1 1 1 
1 1 1 1 1 
i 3 788 int
0 0 0 0 0 0 0 0 0 
0 0 0 0 0 0 0 0 0 
0 0 0 0 0 0 0 0 0 
0 0 0 0 0 0 0 0 0 
0 0 0 0 0 0 0 0 0 
0 0 0 0 0 0 0 0 0 
0 0 0 0 0 0 0 0 0 
0 0 0 0 0 0 0 0 0 
0 0 0 0 0 0 0 0 0 
0 0 0 0 0 0 0 0 0 
0 0 0 0 0 0 0 0 0 
0 0 0 0 0 0 0 0 0 
0 0 0 0 0 0 0 0 0 
0 0 0 0 0 0 0 0 0 
0 0 0 0 0 0 0 0 0 
0 0 0 0 0 0 0 0 0 
0 0 0 0 0 0 0 0 0 
0 0 0 0 0 0 0 0 0 
0 0 0 0 0 0 0 0 0 
0 0 0 0 0 0 0 0 0 
0 0 0 0 0 0 0 0 0 
0 0 0 0 0 0 0 0 0 
0 0 0 0 0 0 0 0 0 
0 0 0 0 0 0 0 0 0 
0 0 0 0 0 0 0 0 0 
0 0 0 0 0 0 0 0 0 
0 0 0 0 0 0 0 0 0 
0 0 0 0 0 0 0 0 0 
0 0 0 0 0 0 0 0 0 
0 0 0 0 0 0 0 0 0 
0 0 0 0 0 0 0 0 0 
0 0 0 0 0 0 0 0 0 
0 0 0 0 0 0 0 0 0 
0 0 0 0 0 0 0 0 0 
0 0 0 0 0 0 0 0 0 
0 0 0 0 0 0 0 0 0 
0 0 0 0 0 0 0 0 0 
0 0 0 0 0 0 0 0 0 
0 0 0 0 0 0 0 0 0 
0 0 0 0 0 0 0 0 0 
0 0 0 0 0 0 0 0 0 
0 0 0 0 0 0 0 0 0 
0 0 0 0 0 0 0 0 0 
0 0 0 0 0 0 0 0 0 
0 0 0 0 0 0 0 0 0 
0 0 0 0 0 0 0 0 0 
0 0 0 0 0 0 0 0 0 
0 0 0 0 0 0 0 0 0 
0 0 0 0 0 0 0 0 0 
0 0 0 0 0 0 0 0 0 
0 0 0 0 0 0 0 0 0 
0 0 0 0 0 0 0 0 0 
0 0 0 0 0 0 0 0 0 
0 0 0 0 0 0 0 0 0 
0 0 0 0 0 0 0 0 0 
0 0 0 0 0 0 0 0 0 
0 0 0 0 0 0 0 0 0 
0 0 0 0 0 0 0 0 0 
0 0 0 0 0 0 0 0 0 
0 0 0 0 0 0 0 0 0 
0 0 0 0 0 0 0 0 0 
0 0 0 0 0 0 0 0 0 
0 0 0 0 0 0 0 0 0 
0 0 0 0 0 0 0 0 0 
0 0 0 0 0 0 0 0 0 
0 0 0 0 0 0 0 0 0 
0 0 0 0 0 0 0 0 0 
0 0 0 0 0 0 0 0 0 
0 0 0 0 0 0 0 0 0 
0 0 0 0 0 0 0 0 0 
0 0 0 0 0 0 0 0 0 
0 0 0 0 0 0 0 0 0 
0 0 0 0 0 0 0 0 0 
0 0 0 0 0 0 0 0 0 
0 0 0 0 0 0 0 0 0 
0 0 0 0 0 0 0 0 0 
0 0 0 0 0 0 0 0 0 
0 0 0 0 0 0 0 0 0 
0 0 0 0 0 0 0 0 0 
0 0 0 0 0 0 0 0 0 
0 0 0 0 0 0 0 0 0 
0 0 0 0 0 0 0 0 0 
0 0 0 0 0 0 0 0 0 
0 0 0 0 0 0 0 0 0 
0 0 0 0 0 0 0 0 0 
0 0 0 0 0 0 0 0 0 
0 0 0 0 0 0 0 0 0 
0 0 0 0 0 0 0 0 0 
0 0 0 0 0 0 0 0 0 
0 0 0 0 0 0 0 0 0 
0 0 0 0 0 0 0 0 0 
0 0 0 0 0 0 0 0 0 
0 0 0 0 0 0 0 0 0 
0 0 0 0 0 0 0 0 0 
0 0 0 0 0 0 0 0 0 
0 0 0 0 0 0 0 0 0 
0 0 0 0 0 0 0 0 0 
0 0 0 0 0 0 0 0 0 
0 0 0 0 0 0 0 0 0 
0 0 0 0 0 0 0 0 0 
0 0 0 0 0 0 0 0 0 
0 0 0 0 0 0 0 0 0 
0 0 0 0 0 0 0 0 0 
0 0 0 0 0 0 0 0 0 
0 0 0 0 0 0 0 0 0 
0 0 0 0 0 0 0 0 0 
0 0 0 0 0 0 0 0 0 
0 0 0 0 0 0 0 0 0 
0 0 0 0 0 0 0 0 0 
0 0 0 0 0 0 0 0 0 
0 0 0 0 0 0 0 0 0 
0 0 0 0 0 0 0 0 0 
0 0 0 0 0 0 0 0 0 
0 0 0 0 0 0 0 0 0 
0 0 0 0 0 0 0 0 0 
0 0 0 0 0 0 0 0 0 
0 0 0 0 0 0 0 0 0 
0 0 0 0 0 0 0 0 0 
0 0 0 0 0 0 0 0 0 
0 0 0 0 0 0 0 0 0 
0 0 0 0 0 0 0 0 0 
0 0 0 0 0 0 0 0 0 
0 0 0 0 0 0 0 0 0 
0 0 0 0 0 0 0 0 0 
0 0 0 0 0 0 0 0 0 
0 0 0 0 0 0 0 0 0 
0 0 0 0 0 0 0 0 0 
0 0 0 0 0 0 0 0 0 
0 0 0 0 0 0 0 0 0 
0 0 0 0 0 0 0 0 0 
0 0 0 0 0 0 0 0 0 
0 0 0 0 0 0 0 0 0 
0 0 0 0 0 0 0 0 0 
0 0 0 0 0 0 0 0 0 
0 0 0 0 0 0 0 0 0 
0 0 0 0 0 0 0 0 0 
0 0 0 0 0 0 0 0 0 
0 0 0 0 0 0 0 0 0 
0 0 0 0 0 0 0 0 0 
0 0 0 0 0 0 0 0 0 
0 0 0 0 0 0 0 0 0 
0 0 0 0 0 0 0 0 0 
0 0 0 0 0 0 0 0 0 
0 0 0 0 0 0 0 0 0 
0 0 0 0 0 0 0 0 0 
0 0 0 0 0 0 0 0 0 
0 0 0 0 0 0 0 0 0 
0 0 0 0 0 0 0 0 0 
0 0 0 0 0 0 0 0 0 
0 0 0 0 0 0 0 0 0 
0 0 0 0 0 0 0 0 0 
0 0 0 0 0 0 0 0 0 
0 0 0 0 0 0 0 0 0 
0 0 0 0 0 0 0 0 0 
0 0 0 0 0 0 0 0 0 
0 0 0 0 0 0 0 0 0 
0 0 0 0 0 0 0 0 0 
0 0 0 0 0 0 0 0 0 
0 0 0 0 0 0 0 0 0 
0 0 0 0 0 0 0 0 0 
0 0 0 0 0 0 0 0 0 
0 0 0 0 0 0 0 0 0 
0 0 0 0 0 0 0 0 0 
0 0 0 0 0 0 0 0 0 
0 0 0 0 0 0 0 0 0 
0 0 0 0 0 0 0 0 0 
0 0 0 0 0 0 0 0 0 
0 0 0 0 0 0 0 0 0 
0 0 0 0 0 0 0 0 0 
0 0 0 0 0 0 0 0 0 
0 0 0 0 0 0 0 0 0 
0 0 0 0 0 0 0 0 0 
0 0 0 0 0 0 0 0 0 
0 0 0 0 0 0 0 0 0 
0 0 0 0 0 0 0 0 0 
0 0 0 0 0 0 0 0 0 
0 0 0 0 0 0 0 0 0 
0 0 0 0 0 0 0 0 0 
0 0 0 0 0 0 0 0 0 
0 0 0 0 0 0 0 0 0 
0 0 0 0 0 0 0 0 0 
0 0 0 0 0 0 0 0 0 
0 0 0 0 0 0 0 0 0 
0 0 0 0 0 0 0 0 0 
0 0 0 0 0 0 0 0 0 
0 0 0 0 0 0 0 0 0 
0 0 0 0 0 0 0 0 0 
0 0 0 0 0 0 0 0 0 
0 0 0 0 0 0 0 0 0 
0 0 0 0 0 0 0 0 0 
0 0 0 0 0 0 0 0 0 
0 0 0 0 0 0 0 0 0 
0 0 0 0 0 0 0 0 0 
0 0 0 0 0 0 0 0 0 
0 0 0 0 0 0 0 0 0 
0 0 0 0 0 0 0 0 0 
0 0 0 0 0 0 0 0 0 
0 0 0 0 0 0 0 0 0 
0 0 0 0 0 0 0 0 0 
0 0 0 0 0 0 0 0 0 
0 0 0 0 0 0 0 0 0 
0 0 0 0 0 0 0 0 0 
0 0 0 0 0 0 0 0 0 
0 0 0 0 0 0 0 0 0 
0 0 0 0 0 0 0 0 0 
0 0 0 0 0 0 0 0 0 
0 0 0 0 0 0 0 0 0 
0 0 0 0 0 0 0 0 0 
0 0 0 0 0 0 0 0 0 
0 0 0 0 0 0 0 0 0 
0 0 0 0 0 0 0 0 0 
0 0 0 0 0 0 0 0 0 
0 0 0 0 0 0 0 0 0 
0 0 0 0 0 0 0 0 0 
0 0 0 0 0 0 0 0 0 
0 0 0 0 0 0 0 0 0 
0 0 0 0 0 0 0 0 0 
0 0 0 0 0 0 0 0 0 
0 0 0 0 0 0 0 0 0 
0 0 0 0 0 0 0 0 0 
0 0 0 0 0 0 0 0 0 
0 0 0 0 0 0 0 0 0 
0 0 0 0 0 0 0 0 0 
0 0 0 0 0 0 0 0 0 
0 0 0 0 0 0 0 0 0 
0 0 0 0 0 0 0 0 0 
0 0 0 0 0 0 0 0 0 
0 0 0 0 0 0 0 0 0 
0 0 0 0 0 0 0 0 0 
0 0 0 0 0 0 0 0 0 
0 0 0 0 0 0 0 0 0 
0 0 0 0 0 0 0 0 0 
0 0 0 0 0 0 0 0 0 
0 0 0 0 0 0 0 0 0 
0 0 0 0 0 0 0 0 0 
0 0 0 0 0 0 0 0 0 
0 0 0 0 0 0 0 0 0 
0 0 0 0 0 0 0 0 0 
0 0 0 0 0 0 0 0 0 
0 0 0 0 0 0 0 0 0 
0 0 0 0 0 0 0 0 0 
0 0 0 0 0 0 0 0 0 
0 0 0 0 0 0 0 0 0 
0 0 0 0 0 0 0 0 0 
0 0 0 0 0 0 0 0 0 
0 0 0 0 0 0 0 0 0 
0 0 0 0 0 0 0 0 0 
0 0 0 0 0 0 0 0 0 
0 0 0 0 0 0 0 0 0 
0 0 0 0 0 0 0 0 0 
0 0 0 0 0 0 0 0 0 
0 0 0 0 0 0 0 0 0 
0 0 0 0 0 0 0 0 0 
0 0 0 0 0 0 0 0 0 
0 0 0 0 0 0 0 0 0 
0 0 0 0 0 0 0 0 0 
0 0 0 0 0 0 0 0 0 
0 0 0 0 0 0 0 0 0 
0 0 0 0 0 0 0 0 0 
0 0 0 0 0 0 0 0 0 
0 0 0 0 0 0 0 0 0 
0 0 0 0 0 0 0 0 0 
0 0 0 0 0 0 
v 3 788 double
-0.70483 -0.0790624 -0.302013 -0.813531 0.0702729 -0.360985 -0.882072 0.020416 -0.379919 
-1.21623 0.0824053 -1.83195 -1.16483 0.0470791 -1.82388 -1.22816 0.208558 -1.83163 
-1.11646 -0.190801 -1.78238 -1.13593 0.0982091 -1.76284 -1.14703 0.278463 -1.83928 
-1.14832 -0.0493155 -1.77669 -1.00125 -0.056749 -1.7216 -1.23274 0.169146 -1.75909 
-1.15392 0.253472 -1.75442 -1.16496 0.313566 -1.75587 -0.927985 -0.0893705 -1.70787 
-0.916792 0.00792413 -1.70674 -1.0702 0.0723754 -1.6699 -1.14927 0.0317068 -1.66528 
-1.25689 0.0342867 -1.72461 -1.16235 0.0278991 -1.6614 -1.17535 -0.0738967 -1.67801 
-1.03699 -0.150905 -1.68532 -1.06247 -0.0318213 -1.57603 -1.1263 -0.0230756 -1.57456 
-1.2255 0.338249 -1.6836 -1.05461 -0.0269159 -1.58688 -1.06719 -0.01735 -1.49691 
-1.13458 0.0303929 -1.54031 -1.15631 -0.04943 -1.52526 -1.15352 0.0596096 -1.51968 
-1.06918 0.00527484 -1.50765 -1.10517 0.0370108 -1.46635 -1.21306 -0.0523629 -1.50329 
-1.08618 -0.129173 -1.42476 -1.13677 0.0257101 -1.40546 -1.04079 0.00651297 -1.39608 
-1.25934 -0.101095 -1.4257 -1.18328 0.102491 -1.37367 -1.08849 -0.0675976 -1.38169 
-1.08577 0.104779 -1.43015 -1.31752 0.207942 -1.40856 -1.08232 -0.0224344 -1.34209 
-1.17128 -0.0833829 -1.35716 -1.15856 0.079826 -1.32186 -1.08858 -0.00313056 -1.29551 
-1.05827 0.0730597 -1.28824 -1.09304 0.0583722 -1.28352 -1.08279 0.0902998 -1.28264 
-1.26104 0.22598 -1.19443 -1.04712 0.0604206 -1.24138 -0.961548 0.0916634 -1.21516 
-1.07089 0.0764774 -1.25175 -0.959316 -0.0543726 -1.2529 -0.973134 0.0703171 -1.2142 
-0.9865 0.0755197 -1.1585 -1.07676 -0.0339691 -1.19226 -1.0019 0.075526 -1.31924 
-0.899299 0.142856 -1.17793 -1.06185 -0.0120895 -1.16878 -1.02523 -0.021201 -1.19591 
-0.917127 -0.211671 -1.28262 -0.890193 -0.0398723 -1.16693 -1.071 0.176431 -1.19089 
-0.926328 0.0128611 -1.12931 -1.03551 0.0244052 -1.098 -1.2421 0.0873517 -1.15568 
-1.02561 -0.0353521 -1.10327 -1.04446 -0.0227815 -1.13603 -1.01979 -0.0331081 -1.11565 
-1.25379 -0.133662 -1.16178 -1.26233 -0.131578 -1.16849 -1.15247 0.0306876 -1.09449 
-0.935236 0.0595779 -1.04801 -0.97886 -0.024399 -1.07636 -0.886289 -0.129696 -1.09338 
-0.988256 0.109287 -1.09411 -1.11094 -0.0901156 -0.948647 -1.18844 -0.0429835 -1.08138 
-1.07018 0.1249 -1.10046 -1.08484 -0.0586101 -1.05475 -1.02934 -0.0471251 -1.04239 
-1.23671 0.0350299 -1.12969 -1.10644 0.0822318 -1.01227 -1.12355 0.027498 -1.00811 
-0.974827 0.0231995 -0.931474 -0.940199 0.0454977 -1.04734 -1.19212 0.14309 -1.02592 
-1.12203 -0.151544 -1.09762 -0.956358 0.130036 -0.961604 -0.9273 0.0533049 -0.906818 
-1.06646 0.310137 -0.974703 -1.06595 -0.0633371 -1.21715 -1.22839 0.138285 -0.970327 
-0.970178 0.112088 -0.987044 -0.937038 0.00446306 -0.838665 -0.893674 0.0247865 -0.833341 
-0.95762 0.137807 -0.835384 -1.00178 0.126971 -0.78974 -1.09065 -0.0323054 -0.883308 
-1.1671 -0.102321 -0.914394 -1.0975 -0.108329 -0.887059 -1.2022 -0.0484226 -0.850736 
-0.633205 0.0666279 -0.922407 -1.19932 -0.0637447 -0.878405 -1.12313 -0.215542 -0.916372 
-0.791703 -0.0638444 -0.66434 -1.13614 0.0751232 -0.741709 -1.25273 -0.574062 -0.905947 
-1.06902 -0.280969 -0.931702 -1.27685 0.0526286 -0.867362 -1.12302 -0.0308751 -0.748898 
-1.07286 0.014188 -0.735038 -1.13699 0.0261535 -0.733356 -1.12182 -0.024323 -0.670891 
-1.16394 -0.0696149 -0.723833 -1.07652 -0.198395 -0.665467 -1.02436 0.179403 -0.642629 
-0.908054 0.166571 -0.592791 -1.13227 0.0648615 -0.661761 -0.957861 0.0850598 -0.589477 
-0.997313 -0.0998963 -0.634932 -1.04299 -0.00891421 -0.641191 -1.17842 -0.0334707 -0.55441 
-1.07131 -0.0200227 -0.530838 -1.07712 0.00213365 -0.576141 -1.10884 -0.0282705 -0.568471 
-1.01061 0.0312319 -0.524493 -1.04551 0.00912446 -0.491945 -1.01581 0.0703343 -0.693805 
-1.03307 0.0287428 -0.581923 -0.911098 0.0507405 -0.505804 -1.01234 -0.0407536 -0.435203 
-1.14807 0.239581 -0.619165 -1.08722 0.01333 -0.472949 -1.08441 -0.0152823 -0.443796 
-1.40563 -0.245875 -0.327195 -1.13691 0.0621687 -0.472925 -1.08687 0.116405 -0.460983 
-1.02453 0.00198966 -0.466546 -1.09563 0.0209924 -0.457753 -0.995243 0.0640182 -0.545995 
-1.07652 -0.420373 -0.576656 -1.04948 -0.39778 -0.571958 -1.06488 0.024503 -0.433556 
-0.890449 -0.090199 -0.372686 -0.898792 -0.042182 -0.433834 -1.02708 0.0142579 -0.430766 
-1.04876 -0.0119909 -0.44266 -1.01303 -0.00481336 -0.424631 -1.13159 0.237988 -0.552651 
-1.10338 -0.0502874 -0.43784 -1.09209 -0.0205658 -0.454355 -1.02708 0.028779 -0.437333 
-1.14403 -0.266534 -0.529113 -1.32742 0.257866 -0.653569 -1.02249 0.22071 -0.514552 
-1.08636 -0.0235041 -0.454439 -1.07054 -0.0409215 -0.445374 -0.980838 -0.00970369 -0.41414 
-1.01004 0.0501886 -0.411932 -1.12572 -0.0779582 -0.484684 -1.03074 -0.387239 -0.554348 
-1.05728 0.134538 -0.506638 -1.15755 0.069858 -0.474284 -1.07165 0.113359 -0.43639 
-0.994254 0.114488 -0.385488 -0.900151 -0.0913065 -0.344628 -0.895683 0.012956 -0.378558 
-0.882863 0.036443 -0.369429 -0.914133 -0.006955 -0.385692 -0.93045 -0.0309233 -0.394927 
-1.13816 0.0351439 -0.467878 -1.13491 -0.120754 -0.484983 -1.10673 -0.019711 -0.429806 
-1.14246 0.0468558 -0.485193 -0.937877 -0.0368114 -0.390573 -0.921091 -0.0589591 -0.380883 
-0.951233 -0.0794909 -0.407911 -1.06106 -0.0577957 -0.358105 -1.05146 -0.0569579 -0.436631 
-0.798628 -0.135128 -0.337186 -0.891917 -0.158117 -0.377136 -0.976745 -0.128907 -0.441023 
-1.09852 -0.116169 -0.460009 -0.871422 -0.0861862 -0.494943 -1.17443 -0.0984755 -0.515151 
-0.884791 0.0407289 -0.374459 -1.01414 0.0180788 -0.426387 -0.779686 -0.0569463 -0.428037 
-0.783234 0.1461 -0.328465 -0.993263 -0.0915707 -0.42055 -1.00162 0.00254006 -0.421595 
-1.12919 -0.0822842 -0.502853 -0.811919 0.0153698 -0.349456 -0.993261 0.00411213 -0.411574 
-0.912687 0.120146 -0.387723 -1.34372 0.0478029 -0.6553 -0.932929 -0.0971058 -0.402017 
-0.946006 0.0887318 -0.390806 -0.952855 0.0141739 -0.399477 -0.885815 0.131881 -0.340733 
-0.877131 0.028742 -0.304855 -0.836933 -0.0598299 -0.339846 -0.941596 -0.126895 -0.36828 
-0.962623 0.0197363 -0.442103 -0.8988 -0.00114413 -0.379934 -0.945558 -0.0243896 -0.41361 
-0.739407 0.122448 -0.319155 -0.750186 0.0485641 -0.321289 -0.795304 0.0666774 -0.342009 
-0.961728 -0.00621058 -0.407671 -0.885522 -0.0424244 -0.374479 -0.946645 -0.211156 -0.443148 
-1.03783 -0.139538 -0.470136 -1.05038 0.00314763 -0.412151 -0.975995 0.0498318 -0.45472 
-0.897347 -0.0340884 -0.35224 -0.885583 0.0728623 -0.356083 -0.965291 -0.047703 -0.406906 
-0.94214 0.0641749 -0.402732 -0.792399 -0.0225606 -0.351393 -0.847298 -0.0343923 -0.353153 
-0.814123 -0.029283 -0.35183 -0.834725 0.00874063 -0.350543 -0.935286 0.0516547 -0.399022 
-0.869847 0.0979496 -0.360672 -0.920327 -0.0562745 -0.387258 -0.947122 -0.136185 -0.425886 
-0.941398 -0.0938667 -0.417572 -1.07005 0.06126 -0.428157 -1.07561 0.116891 -0.457869 
-1.05066 0.0763211 -0.477269 -0.868913 -0.163534 -0.401439 -0.920382 0.10817 -0.376542 
-0.941671 0.0806312 -0.382351 -0.920967 0.0377504 -0.298354 -0.855413 0.065171 -0.382321 
-0.851631 0.0156795 -0.379887 -0.973953 -0.00582161 -0.451231 -0.901805 0.0110861 -0.404983 
-0.786865 0.00285769 -0.324741 -0.921417 -0.0331833 -0.385053 -0.92934 -0.0377214 -0.389338 
-0.934705 -0.0589567 -0.400066 -0.920708 -0.0493013 -0.387722 -1.00287 0.0223655 -0.414917 
-0.961638 0.0450964 -0.456146 -0.969027 0.0552024 -0.418115 -0.980526 0.0146069 -0.408034 
-0.775572 0.0356741 -0.330892 -0.923194 0.00973806 -0.395064 -0.787857 0.00260311 -0.328154 
-0.839242 0.0293275 -0.355581 -0.888956 -0.0114364 -0.371461 -1.01543 -0.107857 -0.434398 
-0.990795 0.0252243 -0.416458 -0.98176 0.244946 -0.468976 -0.843019 0.281519 -0.413325 
-1.07936 -0.11555 -0.736138 -0.868911 -0.0326464 -0.455225 -0.91266 -0.0882123 -0.384034 
-0.753525 0.100724 -0.318044 -0.967053 -0.0684336 -0.397396 -0.866868 0.0412248 -0.363006 
-0.852527 -0.0766412 -0.356271 -1.02271 0.0338642 -0.424738 -0.875421 -0.0328858 -0.361264 
-0.854812 -0.0369485 -0.369416 -0.896405 -0.03449 -0.375568 -0.788941 -0.105496 -0.349679 
-0.909914 -0.0404367 -0.377153 -1.07735 -0.031715 -0.451909 -0.91708 -0.00913917 -0.391698 
-0.863661 -0.0220705 -0.340428 -0.691843 0.066562 -0.293921 -0.784157 0.0538421 -0.341723 
-0.90312 -0.0269526 -0.387022 -0.927165 0.0499387 -0.377712 -0.932993 -0.049877 -0.402711 
-0.987572 0.0405431 -0.40352 -0.995651 -0.113876 -0.428483 -0.918935 -0.125269 -0.318654 
-1.08509 0.095174 -0.465137 -0.858966 0.00969483 -0.35603 -0.863369 0.0496567 -0.362681 
-0.842832 -0.00369174 -0.347904 -1.00554 -0.0480546 -0.608592 -0.819972 0.000930265 -0.399679 
-0.875137 0.0356308 -0.383263 -0.860965 0.0650882 -0.360075 -0.980047 0.0420266 -0.400386 
-0.912395 -0.0453766 -0.396527 -1.00773 0.0745704 -0.447661 -0.9927 0.0806872 -0.42261 
-0.851195 -0.0241082 -0.399153 -0.996663 0.00504596 -0.318924 -0.98793 -0.05168 -0.646344 
-0.871277 -0.1636 -0.403542 -1.07572 0.013156 -0.454027 -0.922155 -0.00877995 -0.432946 
-0.81643 -0.0655109 -0.359899 -0.928886 -0.1625 -0.404967 -1.05872 0.143812 -0.464316 
-0.517396 -0.0906715 -0.223139 -0.560454 0.0834298 -0.181695 -0.508461 0.0917092 -0.103196 
-0.779872 -0.0311685 -0.32636 -0.66995 0.0253031 -0.273495 -0.779943 -0.0284514 -0.334643 
-0.783216 -0.0236304 -0.325638 -0.716753 0.00655207 -0.320265 -0.832637 -0.220476 -0.587913 
-0.481253 0.262935 -0.155432 -0.655384 0.539736 -0.390988 -0.732108 -0.0471591 -0.714604 
-0.869945 -0.00985272 -0.354975 -0.912718 0.0423224 -0.438223 -0.724793 -0.040758 -0.294407 
-0.763343 -0.0882092 -0.304678 -0.644915 0.0761534 -0.349288 -0.829591 -0.0421866 -0.377061 
-0.680867 0.0285301 -0.283478 -0.669816 0.0401179 -0.283393 -0.905631 0.0011182 -0.387359 
-0.853878 0.168239 -0.384482 -0.821299 -0.0949483 -0.329 -0.681017 -0.0617775 -0.285878 
-0.661915 -0.00980023 -0.28323 -0.567734 -0.0321038 -0.251476 -0.717899 0.0491562 -0.301453 
-0.719349 0.0278425 -0.279548 -0.767815 0.121845 -0.367856 -0.830295 0.0443116 -0.348404 
-0.781466 0.0580932 -0.290003 -0.748939 0.0130211 -0.308578 -0.737712 0.0492033 -0.306802 
-0.886922 0.0164433 -0.368585 -1.15736 0.185729 -0.693015 -0.641289 -0.0861295 -0.266809 