# vtk DataFile Version 4.0
Generated by LIGGGHTS
ASCII
DATASET POLYDATA
POINTS 25 float
-0.00462371 0.0206347 0.0383525 -0.0131358 0.022667 0.0385954 -0.0124546 0.031784 0.0395566 
-0.0106535 -0.0244251 0.0430382 -0.0190478 0.013684 0.0421559 -0.00174714 0.0260627 0.0418946 
-0.0134792 -0.0343741 0.0451067 -0.00618745 -0.0313193 0.0465797 -0.00894204 -0.016163 0.0446743 
-0.0299058 -0.00882918 0.047106 -0.0208226 -0.00599195 0.0455748 -0.00953586 0.00971988 0.0445843 
-0.0160886 0.0216478 0.0471416 -0.00408721 -0.0194644 0.0498671 -0.0083641 0.00277185 0.0502375 
-0.00454319 0.0203252 0.0490177 -0.0244429 0.0229939 0.0477533 -0.00174502 0.0344165 0.0492042 
-0.00857183 -0.027925 0.0529379 -0.0118129 -0.0327991 0.0556209 -0.028663 -0.019004 0.0570782 
-0.0202974 -0.0199605 0.0554439 -0.0101549 -0.0158816 0.0565389 -0.0214597 -0.00448395 0.0566138 
-0.0275046 -0.000700049 0.0581037 
VERTICES 25 50
1 0 
1 1 
1 2 
1 3 
1 4 
1 5 
1 6 
1 7 
1 8 
1 9 
1 10 
1 11 
1 12 
1 13 
1 14 
1 15 
1 16 
1 17 
1 18 
1 19 
1 20 
1 21 
1 22 
1 23 
1 24 

POINT_DATA 25
FIELD FieldData 7
id 1 25 int
7 9 11 5 6 1 3 13 12 
10 2 8 4 15 22 14 23 17 
25 20 21 24 18 19 16 
type 1 25 int
1 1 1 1 1 1 1 1 1 
1 1 1 1 1 1 1 1 1 
1 1 1 1 1 1 1 
i 3 25 int
0 0 0 0 0 0 0 0 0 
0 0 0 0 0 0 0 0 0 
0 0 0 0 0 0 0 0 0 
0 0 0 0 0 0 0 0 0 
0 0 0 0 0 0 0 0 0 
0 0 0 0 0 0 0 0 0 
0 0 0 0 0 0 0 0 0 
0 0 0 0 0 0 0 0 0 
0 0 0 
v 3 25 double
0 0 -1.10835 0 0 -1.10619 0 0 -1.09766 
0 0 -1.06607 0 0 -1.07421 0 0 -1.07657 
0 0 -1.04694 0 0 -1.03301 0 0 -1.05096 
0 0 -1.02801 0 0 -1.04253 0 0 -1.05175 
0 0 -1.02762 0 0 -1.00132 0 0 -1 
0 0 -1.00956 0 0 -1.02183 0 0 -1.0078 
0 0 -1 0 0 -1 0 0 -1 
0 0 -1 0 0 -1 0 0 -1 
0 0 -1 
f 3 25 double
0 0 -0.000346714 0 0 -0.000346714 0 0 -0.000346714 
0 0 -0.00160516 0 0 -0.000346714 0 0 -0.00160516 
0 0 -0.00160516 0 0 -0.000346714 0 0 -0.000346714 
0 0 -0.000346714 0 0 -0.00160516 0 0 -0.000346714 
0 0 -0.00160516 0 0 -0.00160516 0 0 0 
0 0 -0.00160516 0 0 -0.000346714 0 0 -0.00160516 
0 0 0 0 0 0 0 0 0 
0 0 0 0 0 0 0 0 0 
0 0 0 
radius 1 25 double
0.0015 0.0015 0.0015 0.0025 0.0015 0.0025 0.0025 0.0015 0.0015 
0.0015 0.0025 0.0015 0.0025 0.0025 0.0015 0.0025 0.0015 0.0025 
0.0015 0.0015 0.0015 0.0015 0.0015 0.0015 0.0025 
omega 3 25 double
0 0 0 0 0 0 0 0 0 
0 0 0 0 0 0 0 0 0 
0 0 0 0 0 0 0 0 0 
0 0 0 0 0 0 0 0 0 
0 0 0 0 0 0 0 0 0 
0 0 0 0 0 0 0 0 0 
0 0 0 0 0 0 0 0 0 
0 0 0 0 0 0 0 0 0 
0 0 0 
