# vtk DataFile Version 4.0
Generated by LIGGGHTS
ASCII
DATASET POLYDATA
POINTS 842 float
-0.205677 0.0258866 -0.190161 -0.203301 -0.0155439 -0.190746 -0.201946 0.00880418 -0.190894 
-0.201438 0.036741 -0.184756 -0.459226 -0.0142344 -0.40037 -0.445652 -0.021782 -0.395696 
-0.469629 -0.00961005 -0.393541 -0.466818 -0.00716717 -0.395936 -0.480777 -0.0102294 -0.390383 
-0.472832 -0.00753903 -0.390917 -0.484817 -0.000873335 -0.390048 -0.468247 0.0179002 -0.390657 
-0.452241 -0.0111583 -0.387649 -0.469138 -0.00636923 -0.387078 -0.47164 -0.0376884 -0.38136 
-0.4554 -0.0279988 -0.378039 -0.463766 -0.0095615 -0.381873 -0.451173 -0.00187643 -0.378469 
-0.462675 0.00186745 -0.379171 -0.45015 0.0166763 -0.381246 -0.453712 0.0224294 -0.379487 
-0.467486 -0.00858325 -0.377056 -0.446422 0.00399489 -0.377663 -0.449711 0.0381922 -0.375383 
-0.456014 -0.00964696 -0.373787 -0.438881 0.0104127 -0.372718 -0.439736 0.0135518 -0.372252 
-0.457271 -0.0163612 -0.36819 -0.452503 -0.00655164 -0.366852 -0.438511 0.00544566 -0.368274 
-0.447911 -0.00249367 -0.365984 -0.454864 0.00186258 -0.363322 -0.448392 0.00331221 -0.360292 
-0.463685 0.00812795 -0.361677 -0.437241 0.0125251 -0.361478 -0.451512 -0.000482573 -0.359485 
-0.45562 -0.00630959 -0.355481 -0.419731 0.00664604 -0.352408 -0.444765 -0.0023639 -0.348819 
-0.428794 -0.0197126 -0.34781 -0.42763 -0.0077651 -0.346336 -0.425427 0.00286653 -0.346095 
-0.405929 0.0102301 -0.345987 -0.430358 0.012271 -0.346341 -0.419499 0.0124145 -0.34503 
-0.437187 -0.0129647 -0.342808 -0.425579 -0.0128231 -0.342552 -0.42686 -0.00337835 -0.344285 
-0.420628 -0.00969228 -0.340237 -0.459611 0.00171706 -0.34187 -0.404279 0.00306617 -0.337204 
-0.42033 0.00774404 -0.337552 -0.414874 0.00840975 -0.339467 -0.438673 0.0119641 -0.338746 
-0.435522 -0.0377249 -0.335433 -0.426664 -0.0263991 -0.335488 -0.424331 -0.0216396 -0.334134 
-0.435785 -0.00734755 -0.336941 -0.425518 -0.00263291 -0.333304 -0.416802 2.48442e-05 -0.335463 
-0.439643 0.0074226 -0.335526 -0.436845 -0.0100026 -0.331337 -0.420869 -0.00477134 -0.332793 
-0.407279 -0.00078988 -0.332491 -0.432899 0.00306726 -0.330397 -0.414252 0.00455526 -0.332202 
-0.437025 0.0157428 -0.331854 -0.414187 -0.00124404 -0.32717 -0.416068 0.00574851 -0.326231 
-0.422953 0.0072615 -0.327058 -0.417725 0.00906565 -0.329552 -0.418836 -0.00167749 -0.325885 
-0.414684 -0.00219977 -0.32238 -0.403754 0.00608424 -0.325591 -0.37819 0.00462275 -0.324559 
-0.424659 0.0133522 -0.324956 -0.404833 0.0114561 -0.324875 -0.429231 -0.00362871 -0.321263 
-0.424642 -0.0011981 -0.319217 -0.403149 0.00113303 -0.32067 -0.424693 0.0171766 -0.318819 
-0.416443 -0.0117104 -0.31498 -0.403758 0.00415743 -0.317604 -0.400677 0.00710215 -0.315568 
-0.437961 0.00743883 -0.315976 -0.411275 0.010139 -0.315519 -0.395234 0.00975992 -0.320168 
-0.426253 -0.0281521 -0.312688 -0.419566 0.0166682 -0.312852 -0.418794 -0.0259291 -0.308844 
-0.404262 -0.0190236 -0.308202 -0.39807 -0.00841167 -0.310395 -0.385871 0.00162897 -0.307827 
-0.418206 0.00555594 -0.309659 -0.405713 0.00505469 -0.309803 -0.418567 0.0132415 -0.308675 
-0.411676 -0.00669664 -0.305906 -0.400751 -0.00497258 -0.306004 -0.390629 0.00415963 -0.306052 
-0.403514 -0.0107285 -0.299847 -0.418451 -0.00267109 -0.302985 -0.405476 -0.0048122 -0.30191 
-0.39221 -0.00603022 -0.301218 -0.401687 -0.00273372 -0.300158 -0.395635 -0.00358829 -0.302605 
-0.406825 0.0156919 -0.300984 -0.380391 -0.0225327 -0.297918 -0.400548 -0.0132179 -0.295967 
-0.401548 -0.0056912 -0.296379 -0.408077 0.00294592 -0.296589 -0.399344 -0.00708497 -0.29211 
-0.388653 -0.00371941 -0.293803 -0.393206 0.00197129 -0.295146 -0.389136 -0.00618983 -0.28987 
-0.394242 0.00478114 -0.288663 -0.393576 0.0125212 -0.291012 -0.397312 0.0159487 -0.291707 
-0.385003 -0.00891263 -0.284668 -0.3858 -0.00466097 -0.284586 -0.384424 0.000568907 -0.285092 
-0.384396 0.00426943 -0.288143 -0.386078 0.00740227 -0.287411 -0.385099 0.0116964 -0.285767 
-0.403019 0.0439297 -0.286295 -0.383213 -0.0123843 -0.281499 -0.38307 -0.00261376 -0.280875 
-0.376736 0.00759819 -0.280064 -0.376084 -0.0113596 -0.27451 -0.374115 0.00901552 -0.273465 
-0.370261 0.0119685 -0.27659 -0.370659 0.0203012 -0.274606 -0.3723 -0.0126414 -0.271361 
-0.366877 0.00145405 -0.271241 -0.362391 0.00594353 -0.270193 -0.370059 0.0156953 -0.270227 
-0.379507 0.024173 -0.273456 -0.385755 0.0391935 -0.271303 -0.380479 -0.0316416 -0.268816 
-0.374702 -0.0261998 -0.268892 -0.362195 0.0029567 -0.266237 -0.366748 0.0117045 -0.268442 
-0.364262 0.0142641 -0.266257 -0.363277 0.024369 -0.269241 -0.362159 -0.0193972 -0.261885 
-0.36559 -0.0153277 -0.264845 -0.359032 -0.0071962 -0.264127 -0.359639 -0.00201338 -0.263409 
-0.35856 0.00390692 -0.2632 -0.364021 0.00776966 -0.264016 -0.360677 0.00973879 -0.262408 
-0.365674 0.0198299 -0.265397 -0.361373 0.0200073 -0.262019 -0.352094 0.00259477 -0.259012 
-0.354248 0.00804727 -0.259421 -0.352354 0.0121137 -0.259766 -0.365727 0.0242211 -0.259643 
-0.363957 -0.0375044 -0.25764 -0.348901 -0.011987 -0.255745 -0.34956 -0.00446881 -0.256985 
-0.347097 -0.00561183 -0.255545 -0.344371 -0.00502075 -0.25337 -0.347428 0.00292642 -0.255907 
-0.346489 0.00800594 -0.254561 -0.350556 0.0113606 -0.254327 -0.357737 0.0206947 -0.257602 
-0.354744 0.0317591 -0.255041 -0.353902 -0.0281091 -0.253179 -0.345741 -0.0087674 -0.253042 
-0.340863 -0.00938494 -0.251995 -0.343549 -0.00259909 -0.251548 -0.344787 0.00465626 -0.252823 
-0.340554 0.00548944 -0.251249 -0.370949 0.0129591 -0.251477 -0.340029 0.0136686 -0.249869 
-0.345754 0.0217926 -0.251935 -0.345078 -0.0273956 -0.24909 -0.339781 -0.0160612 -0.248982 
-0.338558 -0.0116691 -0.249324 -0.33443 -0.0122418 -0.244777 -0.332901 0.0112442 -0.245388 
-0.33936 0.0197191 -0.246839 -0.370092 0.0487373 -0.248762 -0.328692 0.00931559 -0.244329 
-0.32334 0.00881582 -0.241935 -0.340693 0.0350486 -0.244738 -0.339867 -0.036456 -0.24254 
-0.318339 -0.00967006 -0.238755 -0.317856 0.0186988 -0.238248 -0.325043 0.0210889 -0.240807 
-0.314544 -0.0304346 -0.233974 -0.31594 -0.019289 -0.237486 -0.309916 -0.0134748 -0.235771 
-0.30537 -0.0100504 -0.234374 -0.307312 -0.000552325 -0.235703 -0.304559 -0.00082805 -0.234532 
-0.309697 0.0139837 -0.235758 -0.3113 0.0225347 -0.234764 -0.330132 0.0344664 -0.23896 
-0.345318 -0.0523499 -0.235909 -0.304141 -0.0178503 -0.232742 -0.304613 -0.00704331 -0.234336 
-0.299342 -0.00700245 -0.23103 -0.301974 0.000348832 -0.232159 -0.300842 0.00670016 -0.232579 
-0.301416 0.0136391 -0.232373 -0.297407 -0.0168153 -0.230219 -0.291739 -0.0174833 -0.227727 
-0.293365 -0.00317405 -0.229726 -0.294109 0.00101942 -0.229016 -0.28996 -8.78697e-05 -0.228394 
-0.295859 0.00693501 -0.229378 -0.295315 0.0141289 -0.228633 -0.296799 0.0198253 -0.229241 
-0.293455 0.0184778 -0.227005 -0.301537 0.0261213 -0.228891 -0.303436 0.0295773 -0.229755 
-0.289753 -0.0206038 -0.225212 -0.280964 -0.0140393 -0.223677 -0.288648 -0.0068903 -0.226524 
-0.283038 -0.0084904 -0.224062 -0.278211 -0.00196613 -0.223371 -0.284268 0.00535574 -0.225674 
-0.290215 0.00802117 -0.227949 -0.28098 0.0101717 -0.224006 -0.283749 0.0152258 -0.224673 
-0.28376 0.0209038 -0.223658 -0.296656 0.0232997 -0.225219 -0.289625 0.0220325 -0.224779 
-0.286834 0.0255508 -0.224079 -0.303058 0.0368381 -0.226057 -0.306059 0.0444632 -0.224947 
-0.277362 -0.0241124 -0.220482 -0.273882 -0.0192183 -0.219955 -0.278083 -0.0151405 -0.222347 
-0.278645 -0.0107669 -0.221968 -0.271885 -0.0119888 -0.220059 -0.273933 -0.0100566 -0.221141 
-0.278167 -0.00578408 -0.222142 -0.270458 -0.00411557 -0.220038 -0.274239 0.000226256 -0.220571 
-0.271397 0.00496286 -0.220317 -0.274663 0.00740088 -0.221555 -0.276705 0.0108787 -0.222201 
-0.276805 0.0140836 -0.221907 -0.275622 0.0166508 -0.220649 -0.280797 0.0238622 -0.220786 
-0.283964 0.0248675 -0.223026 -0.319565 -0.0578816 -0.221604 -0.277797 -0.0287278 -0.219511 
-0.270448 -0.00743501 -0.21889 -0.264169 -0.00499593 -0.217344 -0.265575 -0.000697164 -0.216973 
-0.291772 0.00703504 -0.217525 -0.268615 0.00540355 -0.219109 -0.261167 0.00630114 -0.215933 
-0.27301 0.0106744 -0.21961 -0.269116 0.0119311 -0.218995 -0.271568 0.0154765 -0.218377 
-0.289858 0.0423345 -0.219542 -0.260349 -0.0127545 -0.214072 -0.256746 -0.00938827 -0.214016 
-0.256409 0.00606825 -0.212853 -0.268649 0.0247365 -0.215638 -0.272915 0.0287996 -0.216209 
-0.263438 -0.0375267 -0.21092 -0.259342 -0.0323669 -0.209806 -0.254341 -0.0255942 -0.209357 
-0.25104 -0.0225104 -0.209838 -0.253879 -0.0196058 -0.210437 -0.248916 -0.012386 -0.210344 
-0.253728 -0.00755565 -0.211745 -0.262511 -0.00407309 -0.213593 -0.249854 0.00555239 -0.210102 
-0.253185 0.0192705 -0.211175 -0.257649 0.0330439 -0.209932 -0.247875 -0.0300925 -0.206693 
-0.249697 -0.02704 -0.207986 -0.248524 -0.0232693 -0.208116 -0.243052 -0.0145442 -0.207611 
-0.265631 -0.0100785 -0.206663 -0.23958 -0.0114977 -0.206321 -0.244475 -0.00610505 -0.208985 
-0.235172 0.00577732 -0.205008 -0.244013 0.0122867 -0.208351 -0.241061 0.0180654 -0.206288 
-0.289182 0.0602841 -0.20884 -0.250684 -0.043445 -0.203482 -0.241149 -0.0292822 -0.20313 
-0.242969 -0.0237203 -0.205126 -0.23538 -0.0227784 -0.203078 -0.239415 -0.0199882 -0.205389 
-0.235537 -0.0152103 -0.204427 -0.234689 -0.000877323 -0.203938 -0.229158 -0.000502279 -0.202657 
-0.240449 0.00690682 -0.205996 -0.232667 0.0035663 -0.202785 -0.228484 0.0043286 -0.201924 
-0.231017 0.00717517 -0.203236 -0.237844 0.0177732 -0.203912 -0.237466 0.0265697 -0.203282 
-0.244443 0.0282922 -0.20577 -0.23586 -0.0339634 -0.199672 -0.228163 -0.0289726 -0.198827 
-0.231245 -0.027313 -0.20046 -0.225128 -0.0222439 -0.198984 -0.230648 -0.0156586 -0.201236 
-0.225401 -0.011509 -0.200454 -0.220398 -0.00807737 -0.198635 -0.224427 0.00223379 -0.200551 
-0.224896 0.00631429 -0.200664 -0.221915 0.00617205 -0.199427 -0.229173 0.00901893 -0.200214 
-0.230701 0.0139231 -0.201388 -0.224669 0.0113556 -0.199194 -0.215828 -0.0160229 -0.194908 
-0.220667 -0.0133275 -0.197184 -0.21344 -0.011974 -0.195397 -0.216935 -0.00727076 -0.197274 
[...]
POINT_DATA 842
FIELD FieldData 7
id 1 842 int
635 519 609 624 295 220 286 279 320 
189 348 208 180 115 337 301 355 236 
190 309 325 193 289 272 256 184 288 
221 212 318 207 266 323 319 311 315 
413 172 324 249 106 251 197 160 254 
365 317 217 313 396 169 341 250 242 
297 338 312 350 229 284 179 403 255 
107 308 310 264 333 261 370 352 280 
269 235 213 380 345 379 307 225 332 
253 346 168 267 240 389 381 404 405 
321 425 283 294 306 356 373 305 344 
303 406 391 247 378 322 504 359 237 
316 383 336 241 330 285 354 401 463 
376 226 331 334 411 384 339 329 291 
173 328 296 438 392 335 441 402 367 
457 439 398 456 395 326 298 362 386 
371 248 393 377 414 468 419 369 426 
481 429 496 535 358 388 273 415 374 
424 421 407 448 360 432 349 400 394 
447 584 410 423 437 452 409 443 382 
446 510 442 276 490 523 470 475 399 
467 195 385 462 428 465 449 540 477 
618 464 387 343 427 513 473 460 430 
472 469 478 458 471 502 357 483 461 
484 351 434 408 451 353 550 440 480 
390 459 431 397 494 436 418 363 476 
422 479 435 433 554 500 375 466 416 
453 417 533 525 499 568 412 505 599 
561 340 364 368 450 509 526 455 492 
558 537 573 501 560 508 543 522 582 
482 366 507 583 541 518 515 361 564 
611 619 645 538 530 566 596 630 546 
420 493 603 498 495 454 445 444 556 
529 572 578 615 520 581 489 553 497 
514 512 551 591 524 548 574 549 511 
559 576 545 563 531 542 503 589 506 
488 491 528 474 588 534 547 614 487 
527 594 532 656 562 521 517 719 516 
676 675 571 620 586 677 648 565 683 
627 604 557 485 889 870 821 814 602 
820 871 486 577 610 606 892 804 650 
555 661 587 552 698 658 654 598 633 
851 655 844 608 628 682 711 595 674 
570 742 580 575 629 590 702 647 613 
662 666 707 612 643 632 680 621 607 
585 625 644 673 536 600 734 692 567 
699 736 694 715 775 616 634 617 640 
631 671 681 641 685 592 669 721 636 
544 725 263 637 712 700 691 539 716 
668 697 597 690 653 639 638 726 657 
649 642 569 626 652 593 601 688 622 
739 744 660 665 678 651 720 717 704 
703 646 727 713 670 663 684 718 755 
679 774 701 710 686 623 667 714 664 
735 730 747 696 741 784 724 732 672 
579 794 754 812 760 756 709 777 750 
753 708 757 748 695 782 729 776 706 
788 803 771 769 733 722 737 790 723 
738 822 789 827 792 687 785 853 740 
728 762 759 805 752 826 773 809 781 
751 765 693 795 705 766 780 778 787 
813 689 746 839 768 800 823 743 783 
767 801 764 797 808 840 796 866 772 
810 763 811 856 828 817 731 779 798 
829 761 791 846 830 816 819 758 845 
799 836 831 852 841 815 793 818 806 
843 824 838 849 872 859 807 880 900 
891 1077 1075 1082 1074 1063 1073 1076 1080 
1085 1084 863 1083 1081 1067 1064 1079 1078 
770 879 835 834 848 903 918 874 931 
833 847 919 749 881 915 858 873 786 
913 899 878 875 842 867 911 861 868 
912 894 837 825 916 855 922 890 877 
659 865 898 896 929 909 888 924 887 
857 876 854 832 905 885 886 882 883 
862 923 893 869 921 897 945 935 901 
943 933 895 928 908 946 936 930 940 
920 938 927 902 904 910 944 860 941 
925 864 939 937 926 907 884 914 932 
906 942 934 917 850 802 953 957 948 
951 947 954 955 745 956 958 605 949 
950 952 966 968 961 965 962 963 969 
971 970 959 964 967 960 978 975 976 
972 983 980 981 979 977 974 982 973 
992 986 993 989 991 987 988 995 984 
994 1004 1009 990 996 985 1007 1001 1006 
1008 1003 997 1002 999 1014 998 1005 1020 
1000 1019 1013 1022 1021 1017 1011 1018 1015 
1016 1010 1012 1031 1026 1027 1029 1025 1028 
1034 1032 1024 1033 1035 1030 1040 1042 1023 
1047 1038 1045 1037 1036 1041 1039 1043 1044 
1046 1048 1052 1049 1051 1057 1053 1059 1054 
1055 1056 1050 1058 1061 1065 1066 1062 1060 
1070 1071 1069 1072 1068 
type 1 842 int
1 1 1 1 1 1 1 1 1 
1 1 1 1 1 1 1 1 1 
1 1 1 1 1 1 1 1 1 
1 1 1 1 1 1 1 1 1 
1 1 1 1 1 1 1 1 1 
1 1 1 1 1 1 1 1 1 
1 1 1 1 1 1 1 1 1 
1 1 1 1 1 1 1 1 1 
1 1 1 1 1 1 1 1 1 
1 1 1 1 1 1 1 1 1 
1 1 1 1 1 1 1 1 1 
1 1 1 1 1 1 1 1 1 
1 1 1 1 1 1 1 1 1 
1 1 1 1 1 1 1 1 1 
1 1 1 1 1 1 1 1 1 
1 1 1 1 1 1 1 1 1 
1 1 1 1 1 1 1 1 1 
1 1 1 1 1 1 1 1 1 
1 1 1 1 1 1 1 1 1 
1 1 1 1 1 1 1 1 1 
1 1 1 1 1 1 1 1 1 
1 1 1 1 1 1 1 1 1 
1 1 1 1 1 1 1 1 1 
1 1 1 1 1 1 1 1 1 
1 1 1 1 1 1 1 1 1 
1 1 1 1 1 1 1 1 1 
1 1 1 1 1 1 1 1 1 
1 1 1 1 1 1 1 1 1 
1 1 1 1 1 1 1 1 1 
1 1 1 1 1 1 1 1 1 
1 1 1 1 1 1 1 1 1 
1 1 1 1 1 1 1 1 1 
1 1 1 1 1 1 1 1 1 
1 1 1 1 1 1 1 1 1 
1 1 1 1 1 1 1 1 1 
1 1 1 1 1 1 1 1 1 
1 1 1 1 1 1 1 1 1 
1 1 1 1 1 1 1 1 1 
1 1 1 1 1 1 1 1 1 
1 1 1 1 1 1 1 1 1 
1 1 1 1 1 1 1 1 1 
1 1 1 1 1 1 1 1 1 
1 1 1 1 1 1 1 1 1 
1 1 1 1 1 1 1 1 1 
1 1 1 1 1 1 1 1 1 
1 1 1 1 1 1 1 1 1 
1 1 1 1 1 1 1 1 1 
1 1 1 1 1 1 1 1 1 
1 1 1 1 1 1 1 1 1 
1 1 1 1 1 1 1 1 1 
1 1 1 1 1 1 1 1 1 
1 1 1 1 1 1 1 1 1 
1 1 1 1 1 1 1 1 1 
1 1 1 1 1 1 1 1 1 
1 1 1 1 1 1 1 1 1 
1 1 1 1 1 1 1 1 1 
1 1 1 1 1 1 1 1 1 
1 1 1 1 1 1 1 1 1 
1 1 1 1 1 1 1 1 1 
1 1 1 1 1 1 1 1 1 
1 1 1 1 1 1 1 1 1 
1 1 1 1 1 1 1 1 1 
1 1 1 1 1 1 1 1 1 
1 1 1 1 1 1 1 1 1 
1 1 1 1 1 1 1 1 1 
1 1 1 1 1 1 1 1 1 
1 1 1 1 1 1 1 1 1 
1 1 1 1 1 1 1 1 1 
1 1 1 1 1 1 1 1 1 
1 1 1 1 1 1 1 1 1 
1 1 1 1 1 1 1 1 1 
1 1 1 1 1 1 1 1 1 
1 1 1 1 1 1 1 1 1 
1 1 1 1 1 1 1 1 1 
1 1 1 1 1 1 1 1 1 
1 1 1 1 1 1 1 1 1 
1 1 1 1 1 1 1 1 1 
1 1 1 1 1 1 1 1 1 
1 1 1 1 1 1 1 1 1 
1 1 1 1 1 1 1 1 1 
1 1 1 1 1 1 1 1 1 
1 1 1 1 1 1 1 1 1 
1 1 1 1 1 1 1 1 1 
1 1 1 1 1 1 1 1 1 
1 1 1 1 1 1 1 1 1 
1 1 1 1 1 1 1 1 1 
1 1 1 1 1 1 1 1 1 
1 1 1 1 1 1 1 1 1 
1 1 1 1 1 1 1 1 1 
1 1 1 1 1 1 1 1 1 
1 1 1 1 1 1 1 1 1 
1 1 1 1 1 1 1 1 1 
1 1 1 1 1 1 1 1 1 
1 1 1 1 1 
i 3 842 int
0 0 0 0 0 0 0 0 0 
0 0 0 0 0 0 0 0 0 
0 0 0 0 0 0 0 0 0 
0 0 0 0 0 0 0 0 0 
0 0 0 0 0 0 0 0 0 
0 0 0 0 0 0 0 0 0 
0 0 0 0 0 0 0 0 0 
0 0 0 0 0 0 0 0 0 
0 0 0 0 0 0 0 0 0 
0 0 0 0 0 0 0 0 0 
0 0 0 0 0 0 0 0 0 
0 0 0 0 0 0 0 0 0 
0 0 0 0 0 0 0 0 0 
0 0 0 0 0 0 0 0 0 
0 0 0 0 0 0 0 0 0 
0 0 0 0 0 0 0 0 0 
0 0 0 0 0 0 0 0 0 
0 0 0 0 0 0 0 0 0 
0 0 0 0 0 0 0 0 0 
0 0 0 0 0 0 0 0 0 
0 0 0 0 0 0 0 0 0 
0 0 0 0 0 0 0 0 0 
0 0 0 0 0 0 0 0 0 
0 0 0 0 0 0 0 0 0 
0 0 0 0 0 0 0 0 0 
0 0 0 0 0 0 0 0 0 
0 0 0 0 0 0 0 0 0 
0 0 0 0 0 0 0 0 0 
0 0 0 0 0 0 0 0 0 
0 0 0 0 0 0 0 0 0 
0 0 0 0 0 0 0 0 0 
0 0 0 0 0 0 0 0 0 
0 0 0 0 0 0 0 0 0 
0 0 0 0 0 0 0 0 0 
0 0 0 0 0 0 0 0 0 
0 0 0 0 0 0 0 0 0 
0 0 0 0 0 0 0 0 0 
0 0 0 0 0 0 0 0 0 
0 0 0 0 0 0 0 0 0 
0 0 0 0 0 0 0 0 0 
0 0 0 0 0 0 0 0 0 
0 0 0 0 0 0 0 0 0 
0 0 0 0 0 0 0 0 0 
0 0 0 0 0 0 0 0 0 
0 0 0 0 0 0 0 0 0 
0 0 0 0 0 0 0 0 0 
0 0 0 0 0 0 0 0 0 
0 0 0 0 0 0 0 0 0 
0 0 0 0 0 0 0 0 0 
0 0 0 0 0 0 0 0 0 
0 0 0 0 0 0 0 0 0 
0 0 0 0 0 0 0 0 0 
0 0 0 0 0 0 0 0 0 
0 0 0 0 0 0 0 0 0 
0 0 0 0 0 0 0 0 0 
0 0 0 0 0 0 0 0 0 
0 0 0 0 0 0 0 0 0 
0 0 0 0 0 0 0 0 0 
0 0 0 0 0 0 0 0 0 
0 0 0 0 0 0 0 0 0 
0 0 0 0 0 0 0 0 0 
0 0 0 0 0 0 0 0 0 
0 0 0 0 0 0 0 0 0 
0 0 0 0 0 0 0 0 0 
0 0 0 0 0 0 0 0 0 
0 0 0 0 0 0 0 0 0 
0 0 0 0 0 0 0 0 0 
0 0 0 0 0 0 0 0 0 
0 0 0 0 0 0 0 0 0 
0 0 0 0 0 0 0 0 0 
0 0 0 0 0 0 0 0 0 
0 0 0 0 0 0 0 0 0 
0 0 0 0 0 0 0 0 0 
0 0 0 0 0 0 0 0 0 
0 0 0 0 0 0 0 0 0 
0 0 0 0 0 0 0 0 0 
0 0 0 0 0 0 0 0 0 
0 0 0 0 0 0 0 0 0 
0 0 0 0 0 0 0 0 0 
0 0 0 0 0 0 0 0 0 
0 0 0 0 0 0 0 0 0 
0 0 0 0 0 0 0 0 0 
0 0 0 0 0 0 0 0 0 
0 0 0 0 0 0 0 0 0 
0 0 0 0 0 0 0 0 0 
0 0 0 0 0 0 0 0 0 
0 0 0 0 0 0 0 0 0 
0 0 0 0 0 0 0 0 0 
0 0 0 0 0 0 0 0 0 
0 0 0 0 0 0 0 0 0 
0 0 0 0 0 0 0 0 0 
0 0 0 0 0 0 0 0 0 
0 0 0 0 0 0 0 0 0 
0 0 0 0 0 0 0 0 0 
0 0 0 0 0 0 0 0 0 
0 0 0 0 0 0 0 0 0 
0 0 0 0 0 0 0 0 0 
0 0 0 0 0 0 0 0 0 
0 0 0 0 0 0 0 0 0 
0 0 0 0 0 0 0 0 0 
0 0 0 0 0 0 0 0 0 
0 0 0 0 0 0 0 0 0 
0 0 0 0 0 0 0 0 0 
0 0 0 0 0 0 0 0 0 
0 0 0 0 0 0 0 0 0 
0 0 0 0 0 0 0 0 0 
0 0 0 0 0 0 0 0 0 
0 0 0 0 0 0 0 0 0 
0 0 0 0 0 0 0 0 0 
0 0 0 0 0 0 0 0 0 
0 0 0 0 0 0 0 0 0 
0 0 0 0 0 0 0 0 0 
0 0 0 0 0 0 0 0 0 
0 0 0 0 0 0 0 0 0 
0 0 0 0 0 0 0 0 0 
0 0 0 0 0 0 0 0 0 
0 0 0 0 0 0 0 0 0 
0 0 0 0 0 0 0 0 0 
0 0 0 0 0 0 0 0 0 
0 0 0 0 0 0 0 0 0 
0 0 0 0 0 0 0 0 0 
0 0 0 0 0 0 0 0 0 
0 0 0 0 0 0 0 0 0 
0 0 0 0 0 0 0 0 0 
0 0 0 0 0 0 0 0 0 
0 0 0 0 0 0 0 0 0 
0 0 0 0 0 0 0 0 0 
0 0 0 0 0 0 0 0 0 
0 0 0 0 0 0 0 0 0 
0 0 0 0 0 0 0 0 0 
0 0 0 0 0 0 0 0 0 
0 0 0 0 0 0 0 0 0 
0 0 0 0 0 0 0 0 0 
0 0 0 0 0 0 0 0 0 
0 0 0 0 0 0 0 0 0 
0 0 0 0 0 0 0 0 0 
0 0 0 0 0 0 0 0 0 
0 0 0 0 0 0 0 0 0 
0 0 0 0 0 0 0 0 0 
0 0 0 0 0 0 0 0 0 
0 0 0 0 0 0 0 0 0 
0 0 0 0 0 0 0 0 0 
0 0 0 0 0 0 0 0 0 
0 0 0 0 0 0 0 0 0 
0 0 0 0 0 0 0 0 0 
0 0 0 0 0 0 0 0 0 
0 0 0 0 0 0 0 0 0 
0 0 0 0 0 0 0 0 0 
0 0 0 0 0 0 0 0 0 
0 0 0 0 0 0 0 0 0 
0 0 0 0 0 0 0 0 0 
0 0 0 0 0 0 0 0 0 
0 0 0 0 0 0 0 0 0 
0 0 0 0 0 0 0 0 0 
0 0 0 0 0 0 0 0 0 
0 0 0 0 0 0 0 0 0 
0 0 0 0 0 0 0 0 0 
0 0 0 0 0 0 0 0 0 
0 0 0 0 0 0 0 0 0 
0 0 0 0 0 0 0 0 0 
0 0 0 0 0 0 0 0 0 
0 0 0 0 0 0 0 0 0 
0 0 0 0 0 0 0 0 0 
0 0 0 0 0 0 0 0 0 
0 0 0 0 0 0 0 0 0 
0 0 0 0 0 0 0 0 0 
0 0 0 0 0 0 0 0 0 
0 0 0 0 0 0 0 0 0 
0 0 0 0 0 0 0 0 0 
0 0 0 0 0 0 0 0 0 
0 0 0 0 0 0 0 0 0 
0 0 0 0 0 0 0 0 0 
0 0 0 0 0 0 0 0 0 
0 0 0 0 0 0 0 0 0 
0 0 0 0 0 0 0 0 0 
0 0 0 0 0 0 0 0 0 
0 0 0 0 0 0 0 0 0 
0 0 0 0 0 0 0 0 0 
0 0 0 0 0 0 0 0 0 
0 0 0 0 0 0 0 0 0 
0 0 0 0 0 0 0 0 0 
0 0 0 0 0 0 0 0 0 
0 0 0 0 0 0 0 0 0 
0 0 0 0 0 0 0 0 0 
0 0 0 0 0 0 0 0 0 
0 0 0 0 0 0 0 0 0 
0 0 0 0 0 0 0 0 0 
0 0 0 0 0 0 0 0 0 
0 0 0 0 0 0 0 0 0 
0 0 0 0 0 0 0 0 0 
0 0 0 0 0 0 0 0 0 
0 0 0 0 0 0 0 0 0 
0 0 0 0 0 0 0 0 0 
0 0 0 0 0 0 0 0 0 
0 0 0 0 0 0 0 0 0 
0 0 0 0 0 0 0 0 0 
0 0 0 0 0 0 0 0 0 
0 0 0 0 0 0 0 0 0 
0 0 0 0 0 0 0 0 0 
0 0 0 0 0 0 0 0 0 
0 0 0 0 0 0 0 0 0 
0 0 0 0 0 0 0 0 0 
0 0 0 0 0 0 0 0 0 
0 0 0 0 0 0 0 0 0 
0 0 0 0 0 0 0 0 0 
0 0 0 0 0 0 0 0 0 
0 0 0 0 0 0 0 0 0 
0 0 0 0 0 0 0 0 0 
0 0 0 0 0 0 0 0 0 
0 0 0 0 0 0 0 0 0 
0 0 0 0 0 0 0 0 0 
0 0 0 0 0 0 0 0 0 
0 0 0 0 0 0 0 0 0 
0 0 0 0 0 0 0 0 0 
0 0 0 0 0 0 0 0 0 
0 0 0 0 0 0 0 0 0 
0 0 0 0 0 0 0 0 0 
0 0 0 0 0 0 0 0 0 
0 0 0 0 0 0 0 0 0 
0 0 0 0 0 0 0 0 0 
0 0 0 0 0 0 0 0 0 
0 0 0 0 0 0 0 0 0 
0 0 0 0 0 0 0 0 0 
0 0 0 0 0 0 0 0 0 
0 0 0 0 0 0 0 0 0 
0 0 0 0 0 0 0 0 0 
0 0 0 0 0 0 0 0 0 
0 0 0 0 0 0 0 0 0 
0 0 0 0 0 0 0 0 0 
0 0 0 0 0 0 0 0 0 
0 0 0 0 0 0 0 0 0 
0 0 0 0 0 0 0 0 0 
0 0 0 0 0 0 0 0 0 
0 0 0 0 0 0 0 0 0 
0 0 0 0 0 0 0 0 0 
0 0 0 0 0 0 0 0 0 
0 0 0 0 0 0 0 0 0 
0 0 0 0 0 0 0 0 0 
0 0 0 0 0 0 0 0 0 
0 0 0 0 0 0 0 0 0 
0 0 0 0 0 0 0 0 0 
0 0 0 0 0 0 0 0 0 
0 0 0 0 0 0 0 0 0 
0 0 0 0 0 0 0 0 0 
0 0 0 0 0 0 0 0 0 
0 0 0 0 0 0 0 0 0 
0 0 0 0 0 0 0 0 0 
0 0 0 0 0 0 0 0 0 
0 0 0 0 0 0 0 0 0 
0 0 0 0 0 0 0 0 0 
0 0 0 0 0 0 0 0 0 
0 0 0 0 0 0 0 0 0 
0 0 0 0 0 0 0 0 0 
0 0 0 0 0 0 0 0 0 
0 0 0 0 0 0 0 0 0 
0 0 0 0 0 0 0 0 0 
0 0 0 0 0 0 0 0 0 
0 0 0 0 0 0 0 0 0 
0 0 0 0 0 0 0 0 0 
0 0 0 0 0 0 0 0 0 
0 0 0 0 0 0 0 0 0 
0 0 0 0 0 0 0 0 0 
0 0 0 0 0 0 0 0 0 
0 0 0 0 0 0 0 0 0 
0 0 0 0 0 0 0 0 0 
0 0 0 0 0 0 0 0 0 
0 0 0 0 0 0 0 0 0 
0 0 0 0 0 0 0 0 0 
0 0 0 0 0 0 0 0 0 
0 0 0 0 0 0 0 0 0 
0 0 0 0 0 0 0 0 0 
0 0 0 0 0 0 0 0 0 
0 0 0 0 0 0 0 0 0 
0 0 0 0 0 0 0 0 0 
0 0 0 0 0 0 0 0 0 
0 0 0 0 0 0 0 0 0 
0 0 0 0 0 0 0 0 0 
0 0 0 0 0 0 0 0 0 
0 0 0 0 0 0 0 0 0 
0 0 0 0 0 0 0 0 0 
0 0 0 0 0 0 
v 3 842 double
-1.00193 -0.143987 -0.44057 -0.892189 -0.0177546 -0.343749 -0.826323 0.115147 -0.338051 
-0.854227 -0.00652656 -0.361476 -1.0399 0.0239732 -1.8858 -0.920937 -0.15804 -1.81234 
-1.20781 -0.010902 -1.81493 -1.01095 -0.0543533 -1.80141 -1.185 0.181286 -1.81168 
-1.10135 0.05549 -1.77461 -1.22956 0.218808 -1.80283 -1.09174 0.107324 -1.76905 
-0.931525 -0.0507589 -1.72985 -1.13028 0.0706817 -1.76882 -1.05424 0.0128972 -1.73514 
-1.0581 -0.260259 -1.70049 -1.0994 0.0609424 -1.7442 -0.998607 -0.103271 -1.69573 
-1.07806 0.0159724 -1.69925 -0.957441 0.00412971 -1.70817 -0.981793 -0.03774 -1.7124 
-1.19731 -0.0137659 -1.7288 -0.955503 -0.0809711 -1.6898 -0.933584 0.0654867 -1.67931 
-1.02124 -0.114491 -1.64559 -0.918825 -0.0745457 -1.67001 -0.903137 -0.0626823 -1.65855 
-1.09636 -0.00644754 -1.63942 -1.02462 0.0728468 -1.61106 -0.917667 -0.0825723 -1.6376 
-1.1057 -0.0822859 -1.65569 -1.13785 -0.0769281 -1.62761 -1.10061 -0.0949063 -1.6033 
-1.25622 -0.111964 -1.64549 -0.927815 -0.0557572 -1.58855 -1.12261 0.112501 -1.59275 
-1.20211 0.11334 -1.58454 -0.897172 0.0806651 -1.55231 -1.09055 -0.10352 -1.50389 
-1.00141 -0.0479294 -1.55454 -0.937067 0.00432739 -1.48381 -0.918801 0.0548237 -1.47944 
-0.760905 0.0124987 -1.52159 -0.990953 0.0356527 -1.49915 -0.865269 0.0872996 -1.48212 
-1.07261 0.105866 -1.49428 -0.935529 -0.0108325 -1.4704 -0.954853 0.0254883 -1.48928 
-0.9209 0.0381036 -1.44454 -1.33799 0.0333986 -1.59637 -0.76392 0.0590105 -1.42753 
-0.925343 0.0662725 -1.43274 -0.85201 0.0159211 -1.42364 -1.13862 -0.0137652 -1.46897 
-1.02912 -0.0472918 -1.43895 -0.957283 0.00957379 -1.42714 -0.96573 -0.0302623 -1.40758 
-1.2095 0.0876381 -1.50027 -0.97751 0.0643312 -1.39387 -0.935655 -0.0389307 -1.42299 
-1.12071 0.123413 -1.44642 -1.12827 0.0575809 -1.37094 -0.97657 0.060896 -1.4173 
-0.849407 -0.00249987 -1.39701 -1.06094 -0.0753973 -1.36337 -0.901075 -0.0182385 -1.38809 
-1.21787 -0.0518661 -1.44 -0.934124 -0.0763373 -1.35374 -1.03471 -0.0487233 -1.38365 
-1.06876 -0.0317377 -1.3836 -1.04059 -0.0404223 -1.4241 -0.99625 0.0594318 -1.35691 
-0.968472 -0.0763169 -1.3336 -0.854114 0.0622507 -1.34375 -0.662324 -0.0890583 -1.42381 
-1.13952 -0.0299208 -1.39322 -0.937475 0.00207854 -1.43368 -1.13238 0.0979883 -1.29204 
-1.02909 -0.0378351 -1.28866 -0.819169 0.0463987 -1.28572 -1.15658 -0.0380869 -1.33814 
-1.08619 -0.00364078 -1.28737 -0.851679 0.0719661 -1.27242 -0.843059 0.0562793 -1.25131 
-1.15438 -0.0265574 -1.26253 -0.998687 0.0478707 -1.27662 -0.905419 -0.00201857 -1.53544 
-1.13236 0.123357 -1.31946 -1.22148 -0.159503 -1.39953 -1.13637 -0.0599097 -1.25455 
-0.964021 0.000529939 -1.21861 -0.942141 -0.0142409 -1.25174 -0.815334 0.0221386 -1.25 
-1.16801 -0.120018 -1.24548 -1.00077 -0.0351216 -1.24074 -1.24978 -0.162412 -1.28887 
-1.16109 0.0929289 -1.2201 -0.944002 -0.00261316 -1.21144 -0.815737 0.027157 -1.19659 
-1.10036 0.0211727 -1.16954 -1.1395 0.122618 -1.19299 -1.0895 0.0920915 -1.21794 
-0.897555 -0.0365125 -1.15213 -1.11361 0.013639 -1.15446 -0.828483 -0.171817 -1.21641 
-1.17575 -0.099752 -1.21072 -0.69999 -0.0786664 -1.11319 -1.0939 0.0603272 -1.117 
-1.10431 0.0400387 -1.13716 -1.21554 -0.15841 -1.10862 -1.14008 0.0783112 -0.992945 
-0.95652 -0.0325731 -1.11987 -0.96795 0.0281804 -1.12006 -1.02054 -0.000885128 -1.05742 
-1.09948 0.050905 -1.01815 -1.11442 -0.0942779 -1.10917 -1.16571 -0.288707 -1.18519 
-1.04336 -0.0159088 -1.01239 -1.07785 0.00966422 -1.0167 -1.02319 -0.00675124 -1.02175 
-1.0012 -0.00625908 -1.07083 -1.03023 -0.0325939 -1.04609 -1.00241 -0.0354454 -1.03876 
-1.11682 0.0692231 -1.07557 -1.05493 -0.0341769 -0.996597 -1.08108 0.0146906 -0.989592 
-0.970163 -0.0787416 -0.966345 -1.09945 0.0804293 -0.929905 -1.15066 0.15227 -0.921605 
-0.927618 -0.0602206 -0.949367 -0.893744 0.057118 -0.898078 -1.09474 0.0645417 -0.895333 
-1.07604 0.0646384 -0.929323 -0.932349 -0.0459313 -0.93879 -1.04894 0.0807352 -0.882846 
-1.17184 0.130419 -1.13298 -1.26359 0.0641379 -0.964105 -1.17388 0.319776 -1.029 
-1.04671 0.136552 -0.918698 -0.978574 0.0524771 -0.859697 -1.07773 -0.0167849 -0.861354 
-1.05677 -0.0150435 -0.834465 -1.1 -0.0339889 -1.07636 -1.12546 0.0102713 -0.794108 
-1.13767 0.00659103 -0.821145 -0.931863 0.0771087 -0.769952 -0.896679 0.0432258 -0.712777 
-1.03708 -0.0783032 -0.788541 -1.08971 -0.0446352 -0.722499 -1.10793 -0.0269179 -0.808604 
-1.07203 -0.0363971 -0.863759 -1.08304 -0.0300217 -0.831978 -0.984536 -0.106928 -0.721345 
-1.08936 -0.0532732 -0.796821 -1.05888 -0.0450864 -0.798529 -1.28902 -0.0814642 -0.819386 
-1.13144 -0.031255 -0.827111 -0.973977 -0.0620074 -0.659452 -0.976038 -0.00339729 -0.707851 
-0.968014 -0.0189975 -0.691824 -0.924748 -0.032325 -0.619518 -0.964239 0.0279976 -0.664982 
-0.933466 -0.0884208 -0.641096 -1.10426 -0.102396 -0.697592 -1.10887 -0.0363477 -0.755671 
-0.938959 0.00363326 -0.698904 -1.1835 0.199189 -0.767623 -0.989407 -0.0182311 -0.654758 
-1.007 -0.035907 -0.721787 -1.08427 0.0145501 -0.516864 -0.967004 0.0246542 -0.63529 
-0.956478 0.00383404 -0.593726 -1.31063 -0.0663258 -0.768707 -1.06749 -0.0186179 -0.613767 
-0.98199 -0.0516308 -0.647667 -1.03729 0.0749268 -0.629232 -1.18905 -0.0810139 -0.650876 
-1.02291 -0.0295014 -0.665009 -1.04286 0.0226398 -0.45372 -0.88998 0.0129923 -0.488991 
-1.20047 -0.123022 -0.658723 -1.06557 0.132866 -0.618389 -1.10821 -0.0690081 -0.530671 
-0.949705 0.0649625 -0.409797 -0.848479 -0.00715717 -0.530366 -1.19872 0.129853 -0.720141 
-1.1278 -0.0550988 -0.502869 -1.10313 -0.0908801 -0.479414 -1.10236 -0.0375367 -0.488049 
-0.978817 0.0396554 -0.409718 -1.12157 -0.0975455 -0.423868 -0.943763 -0.0251088 -0.373986 
-0.822513 0.0314558 -0.349448 -0.911405 0.0382635 -0.386479 -0.906355 0.023334 -0.383143 
-1.18821 -0.397261 -0.572966 -1.0333 0.025096 -0.426186 -1.09089 -0.646049 -0.695148 
-1.3896 0.106067 -0.723495 -1.18602 0.205046 -0.545583 -1.06795 0.0811761 -0.453192 
-1.06132 0.0224938 -0.448314 -0.920977 0.0221966 -0.407757 -0.906944 -0.0459802 -0.385645 
-0.860391 0.104998 -0.333141 -1.04052 0.154935 -0.463563 -1.0217 0.0838983 -0.442353 
-1.02577 0.105886 -0.436655 -1.08262 -0.0731854 -0.460869 -1.09281 -0.0800643 -0.458603 
-1.05014 -0.0245681 -0.444052 -0.9564 0.0323693 -0.392225 -0.92355 -0.0960439 -0.403357 
-0.878908 -0.0280848 -0.373759 -1.08736 -0.121508 -0.479844 -1.15282 -0.28091 -0.560236 
-1.0115 0.0689465 -0.435008 -0.940723 0.0260484 -0.397894 -1.0006 0.0197964 -0.423111 
-0.966165 0.0660974 -0.413641 -0.84812 -0.0415712 -0.356753 -1.06296 -0.0655062 -0.452209 
-0.751708 -0.116875 -0.242114 -1.04112 -0.0694042 -0.433713 -1.02235 -0.106278 -0.4564 
-0.813394 -0.0156694 -0.350384 -0.994899 0.0428075 -0.453666 -0.935721 0.0259754 -0.375655 
-0.890894 0.054224 -0.351334 -0.939577 -0.051092 -0.388575 -1.02648 0.10287 -0.409626 
-0.913704 0.0138903 -0.380777 -0.856223 0.0537487 -0.365206 -0.998835 0.0615269 -0.426977 
-0.94906 0.079443 -0.408279 -0.940606 -0.0857261 -0.367899 -0.879295 0.024748 -0.355168 
-0.962541 0.0806734 -0.409293 -0.711893 -0.0880205 -0.298435 -0.773626 -0.0271426 -0.43142 
-0.838623 -0.0113473 -0.357012 -0.860709 0.0244951 -0.354878 -0.895185 0.0904112 -0.364482 
-0.984765 0.0675146 -0.41003 -0.946929 0.039621 -0.383443 -0.900333 -0.0155137 -0.370962 
-0.891116 0.0312786 -0.379107 -1.04876 0.635079 -0.891956 -0.979001 -0.025841 -0.393732 
-0.830941 -0.165258 -0.400665 -0.949469 -0.0155698 -0.397703 -0.950687 0.0212101 -0.399366 
-1.33894 0.156295 -0.449314 -0.837652 0.0154008 -0.355763 -0.830669 0.0849656 -0.349495 
-0.910671 0.0770767 -0.367488 -0.850048 -0.0135445 -0.356372 -0.962386 -0.0330667 -0.394886 
-1.16636 -0.0720814 -0.515913 -0.887397 0.0252923 -0.377413 -0.860118 0.0174052 -0.365492 
-0.933352 -0.0533165 -0.393316 -1.06011 0.00572666 -0.43829 -1.10699 -0.00887037 -0.458513 
-1.02771 0.0075998 -0.466171 -0.842039 -0.0450004 -0.384324 -0.841858 -0.0270435 -0.325192 
-0.835724 -0.0489105 -0.387961 -0.873367 -0.0746401 -0.361859 -0.919859 0.0126872 -0.39544 
-0.860811 0.064581 -0.367774 -0.984748 0.137935 -0.755167 -0.919201 -0.0562733 -0.393897 
-0.950673 -0.0176336 -0.39742 -0.819092 -0.105047 -0.362444 -0.525992 -0.0409502 -0.230753 
-0.763906 -0.0440926 -0.408589 -0.785378 0.0389188 -0.388681 -1.04224 -0.0483747 -0.398535 
-1.12555 0.11765 -0.377218 -0.956302 -0.0823917 -0.46447 -1.02788 -0.120572 -0.4221 
-0.673167 0.0212465 -0.2804 -0.836389 -0.0488106 -0.360893 -0.85435 0.0501206 -0.346056 
-1.23516 0.101671 -0.407898 -1.09691 0.0614442 -0.484413 -0.723451 0.0098843 -0.277748 
-0.799055 -0.0795071 -0.334839 -0.931992 0.0515593 -0.404059 -0.983341 0.0728916 -0.380735 
-0.966368 0.0448166 -0.417324 -0.588212 -0.0834403 -0.256553 -0.660657 -0.115852 -0.243212 
-0.80372 -0.0101116 -0.655365 -0.694652 -0.0123861 -0.313739 -0.648151 0.0293622 -0.262127 
-0.678507 -0.0235715 -0.274801 -0.852095 0.028994 -0.348967 -0.945442 0.0800882 -0.384279 
-1.14184 -0.154543 -0.518934 -1.01199 -0.00373064 -0.416098 -0.97166 0.00465716 -0.41282 
-0.916919 -0.0389591 -0.367196 -0.767545 0.00525277 -0.316106 -0.934619 0.0484207 -0.404493 
-0.763183 0.0430489 -0.330373 -0.826812 0.0684009 -0.348884 -0.700193 -0.055493 -0.298853 
-0.794895 -0.0777235 -0.332223 -0.914132 -0.0594169 -0.381462 -0.805487 0.0882857 -0.26025 