# vtk DataFile Version 4.0
Generated by LIGGGHTS
ASCII
DATASET POLYDATA
POINTS 328 float
-0.150391 0.0105476 -0.16907 -0.193168 0.0682451 -0.168483 -0.156355 0.0260622 -0.168955 
-0.140306 -0.0249639 -0.162183 -0.132166 -0.0169877 -0.16088 -0.138881 -0.00150757 -0.163541 
-0.132337 -0.00380188 -0.161364 -0.134723 0.0219962 -0.161131 -0.130118 -0.00610372 -0.159321 
-0.123798 -0.00422446 -0.156779 -0.123543 -0.0261644 -0.154883 -0.122221 -0.0192486 -0.15639 
-0.115651 -0.007273 -0.15406 -0.120615 -0.00371545 -0.156373 -0.121138 0.000142127 -0.149246 
-0.118045 -0.00425253 -0.154351 -0.115297 0.000304021 -0.154228 -0.125301 0.0207219 -0.156369 
-0.131142 -0.00954202 -0.149641 -0.121373 -0.00658937 -0.153395 -0.108 -0.00322176 -0.150464 
-0.10962 0.00306918 -0.152222 -0.101719 0.00498506 -0.148865 -0.11735 0.0126429 -0.153661 
-0.104874 0.0173626 -0.149359 -0.100818 -0.000835548 -0.147432 -0.0966563 -0.00214542 -0.146017 
-0.0986001 0.004237 -0.147239 -0.100967 0.00787796 -0.148402 -0.10559 0.013227 -0.148885 
-0.0979962 0.01407 -0.145611 -0.100287 0.0198566 -0.146048 -0.121873 0.0551895 -0.147346 
-0.0936798 -0.00702177 -0.144296 -0.0920472 -0.00314548 -0.144832 -0.0897652 -0.00512681 -0.142669 
-0.0930516 -0.000350678 -0.145244 -0.105906 0.00123741 -0.147685 -0.102973 0.00126214 -0.14433 
-0.0850666 0.000708965 -0.141126 -0.0885238 0.00335355 -0.142115 -0.0884618 0.0108145 -0.142962 
-0.0985312 0.00995399 -0.144565 -0.100073 -0.0436821 -0.142126 -0.0828843 -0.00921109 -0.1396 
-0.103433 -0.00722539 -0.143121 -0.101043 -0.00120265 -0.141825 -0.113305 -7.36343e-06 -0.14473 
-0.0994158 0.00439066 -0.141622 -0.0839132 0.00575275 -0.141316 -0.0824607 0.0104722 -0.139362 
-0.0904881 0.0400787 -0.138474 -0.0978539 0.0453224 -0.140938 -0.0953312 -0.0472703 -0.138447 
-0.0721767 -0.0111838 -0.13499 -0.0938416 -0.0022532 -0.137309 -0.0746771 0.00316543 -0.137447 
-0.071523 0.0026483 -0.135049 -0.0899628 0.00765295 -0.139242 -0.0789581 0.00676409 -0.138112 
-0.0697566 0.00990603 -0.135199 -0.0754814 0.0145188 -0.137187 -0.0870182 0.0386839 -0.137318 
-0.0705305 -0.029827 -0.132041 -0.0709235 -0.0212337 -0.13349 -0.0840943 -0.0156419 -0.136723 
-0.0593521 -0.0097112 -0.130749 -0.0658597 -0.00467582 -0.133724 -0.0920838 0.0160442 -0.134988 
-0.0816999 -0.0577583 -0.130085 -0.0773695 -0.042999 -0.131883 -0.0582701 -0.0346081 -0.1271 
-0.0649441 -0.0258726 -0.129782 -0.0557899 -0.0185142 -0.128538 -0.0628678 -0.0145271 -0.126787 
-0.0945574 0.00130154 -0.134941 -0.0591073 0.00126181 -0.129842 -0.0545888 0.00212542 -0.129004 
-0.0912793 0.00399521 -0.132008 -0.0608103 0.0150472 -0.130973 -0.0533849 0.0195282 -0.12751 
-0.0614752 0.0251763 -0.129035 -0.0563037 0.0258616 -0.127807 -0.0611541 -0.0329246 -0.12798 
-0.0622475 0.0158654 -0.128458 -0.0508019 0.0173604 -0.126634 -0.0493134 -0.00376144 -0.126754 
-0.0489933 -0.0114888 -0.126306 -0.0760958 0.00838645 -0.127052 -0.0499328 0.0241769 -0.125449 
-0.0608181 -0.00800688 -0.127157 -0.0594105 -0.00162788 -0.125181 -0.0344795 0.0306845 0.0492542 
-0.0288367 0.021507 0.0465179 -0.0454245 -0.0104101 -0.12377 -0.0208274 -0.00751444 0.0497539 
-0.0469799 -0.00259615 -0.123064 -0.0318304 -0.0270523 0.0462555 -0.0453971 0.00290987 -0.12509 
-0.026015 0.0234799 0.0511876 -0.0224693 0.00786627 0.0511323 -0.0107355 -0.0111371 0.0477838 
-0.0478265 -0.0308574 -0.122404 -0.042724 -0.0195924 -0.121587 -0.0415179 -0.0125197 -0.121783 
-0.0657019 -0.00196383 -0.121078 -0.0419662 -0.00176952 -0.1224 -0.0822143 0.00188701 -0.122981 
-0.0662918 0.00159267 -0.124808 -0.0461869 0.000949091 -0.120486 -0.0553512 0.00695249 -0.121492 
-0.0417062 0.00349943 -0.122304 -0.0259008 0.01415 0.0449738 -0.071733 0.00530407 -0.12513 
-0.0502898 0.0085923 -0.125146 -0.0455734 0.00954206 -0.121423 -0.0433075 0.0205417 -0.12158 
-0.0795957 0.0308875 -0.123415 -0.0443529 -0.0250987 -0.117494 -0.0780265 -0.0224157 -0.117119 
-0.0407934 -0.0194644 -0.115367 -0.0652007 -0.0105687 -0.119906 -0.0118162 -0.0172965 0.0476817 
-0.0284446 -0.00816427 -0.116748 -0.0410352 -0.00537551 -0.119322 -0.0359147 -0.00568018 -0.116765 
-0.0240729 -0.00600954 -0.112367 -0.0863593 0.00212292 -0.121194 -0.0339292 -0.000927787 -0.119258 
-0.0336559 0.00615396 -0.117588 -0.0519463 0.00658144 -0.1164 -0.0247963 0.0115217 -0.11606 
-0.0499857 0.0164931 -0.12275 -0.0498338 -0.0415261 -0.118709 -0.0296438 -0.0390963 -0.114343 
-0.0315142 -0.0277398 -0.116103 -0.0418152 -0.0181655 -0.110663 -0.0428036 -0.0233923 -0.112744 
-0.0276134 -0.0200737 -0.116462 -0.0652443 -0.0167477 -0.115169 -0.0355681 -0.0170375 -0.118334 
-0.0316054 -0.0171305 -0.115384 -0.0485147 -0.00988987 -0.116922 -0.0377412 -0.0113901 -0.113336 
-0.0329225 -0.010502 -0.115193 -0.0675717 -0.00902049 -0.118005 -0.024185 -0.00993115 -0.115893 
-0.0630726 -0.00538633 -0.113747 -0.0229383 0.000661325 -0.110357 -0.0598168 0.00782733 -0.114368 
-0.0504256 0.0116341 -0.11582 -0.0709733 0.0110145 -0.117658 -0.0724797 0.0167999 -0.116586 
-0.0307859 0.0162921 -0.117108 -0.0280324 0.0271571 -0.115235 -0.0317531 0.0296967 -0.11587 
-0.0607895 0.0356636 -0.116296 -0.0410095 -0.0223731 -0.119417 -0.0323089 -0.0158432 -0.110494 
-0.0554843 -0.01197 -0.112207 -0.0169919 -0.0116486 -0.108344 -0.0392091 -0.00607514 -0.109056 
-0.0164261 -0.00369873 -0.112763 -0.0395857 -0.00340486 -0.113266 -0.0339055 -0.000911739 -0.114328 
-0.0245655 0.00316138 -0.114164 -0.023437 0.0083785 -0.11334 -0.0193173 0.0106157 -0.111261 
-0.0646755 0.0163589 -0.11298 -0.0263531 0.0169176 -0.114866 -0.029357 0.0234311 -0.110542 
-0.0205703 0.0245616 -0.108315 -0.0176386 -0.0487389 -0.106621 -0.0523145 -0.0116607 -0.108985 
-0.0430842 -0.0143644 -0.107614 -0.0186201 -0.00324297 -0.104395 -0.0692889 0.00901873 -0.111477 
-0.0483373 0.00458854 -0.108596 -0.0386632 0.0181492 -0.120322 -0.0105117 0.0231031 -0.104919 
-0.0364507 0.0262919 -0.11724 -0.035048 -0.0233759 -0.118317 -0.0191002 -0.0227887 -0.109865 
-0.0328639 -0.0121608 -0.103502 -0.0228996 -0.0138074 -0.112769 -0.0157198 -0.0153953 -0.102897 
-0.0332166 -0.00457791 -0.103971 -0.0371469 0.0123874 -0.10602 -0.0298556 0.0134312 -0.101688 
-0.024764 0.0157451 -0.109659 -0.012206 0.0264304 -0.102241 -0.0281403 0.0316609 -0.113031 
-0.013892 -0.0274772 -0.106877 -0.0284739 -0.0279849 -0.112006 -0.0238082 -0.0224707 -0.102629 
-0.0336058 0.00480971 -0.113725 -0.00286763 0.0306172 -0.101888 -0.00580609 0.0392409 -0.102984 
-0.0330942 -0.00178174 -0.109539 -0.00280666 0.00562185 -0.106131 -0.0198209 -0.0146955 -0.107616 
-0.0326428 0.0349629 -0.108463 -0.034981 -0.0249092 -0.101229 -0.0306718 0.00167617 -0.0998316 
-0.00264988 0.00425434 -0.100626 -0.00018665 0.0188342 -0.101222 -0.0159198 0.0243576 -0.0992222 
-0.0232114 -0.0234185 -0.0973647 -0.0173269 -0.00522829 -0.097101 -0.0237709 0.00172744 -0.0967322 
-0.0308689 0.0273623 -0.0959981 -0.00573913 0.0284222 -0.0931436 -0.0341415 -0.0150214 -0.0885792 
-0.00546888 0.0136012 -0.0893701 -0.0121862 -0.0184905 -0.0868742 -0.014731 -0.0256121 -0.0800959 
-0.0168405 0.0156428 -0.0805536 -0.0148951 0.0311963 -0.0808876 -0.000147874 0.0325969 -0.082705 
-0.0118483 -0.0331947 -0.0780663 -0.0342709 -0.0266248 -0.0778412 -0.0127903 0.0167345 -0.0772972 
-0.0123255 0.0311922 -0.0763627 -0.00133775 -0.0346143 -0.0738561 -0.00525173 -0.0253791 -0.0724374 
-0.0104339 -0.0112253 -0.0690617 -0.0126988 -0.00665925 -0.071756 -0.0147394 0.0154412 -0.068986 
-0.0116971 -0.00845001 -0.0658261 -0.0241178 0.0300767 -0.068031 -0.0142921 -0.0256298 -0.064324 
-0.0136619 -0.00711923 -0.0614702 -0.0141421 -0.0289115 -0.0589993 -0.0275287 0.0316192 -0.0588615 
-0.0113842 0.0330078 -0.0611149 -0.0215223 -0.00790873 -0.0563506 -0.0140583 -0.00457604 -0.0564237 
-0.0198385 0.0337207 -0.0562289 -0.0125397 0.000705716 -0.053568 -0.00624641 0.0129916 -0.0515397 
-0.0186146 -0.0271402 -0.0469631 -0.00523715 -0.00647974 -0.0491641 -0.0110222 0.021925 -0.0480493 
-0.00913613 -0.0312941 -0.0435368 -0.0256746 -0.0217519 -0.0452404 -0.0334121 0.00368684 -0.044074 
-0.011765 0.00818954 -0.0429361 -0.0245223 0.0145985 -0.0446986 -0.0183381 0.00273344 -0.0414945 
-0.000908632 -0.0201376 -0.0353107 -0.00778825 0.00202854 -0.0369334 -0.0312596 -0.0282318 -0.0313142 
-0.00133703 -0.00658453 -0.03377 -0.00508252 -0.0028679 -0.0329661 -0.0114835 0.00360093 -0.0321318 
-0.00736955 0.00915874 -0.0317296 -0.004822 0.0167274 -0.0345595 -0.03335 -0.0101411 -0.0281096 
-0.0132609 0.017575 -0.0303656 -0.0230186 0.023228 -0.027503 -0.0181876 -0.028381 -0.0222727 
-0.0342247 -0.0119118 -0.0218895 -0.0327461 -0.00810316 -0.0236464 -0.0202693 -0.00943017 -0.0215489 
-0.0228461 0.00943572 -0.0237729 -0.00273627 0.0326024 -0.0231978 -0.0270427 -0.0136491 -0.0171036 
-0.0244054 0.0234551 -0.0165696 -0.0290573 0.0260911 -0.0184902 -0.0338399 -0.0287184 -0.0128716 
-0.0084722 -0.00462009 -0.0128322 -0.0288682 0.0130299 -0.0131781 -0.00252809 0.0307765 -0.0151177 
-0.000691472 0.0332631 -0.0131951 -0.0309256 0.00918438 -0.00933455 -0.0309119 -0.0207084 -0.00572123 
-0.0252685 -0.0119457 -0.00775353 -0.0272645 0.0231035 -0.00589632 -0.0304536 -0.0123493 -0.00399273 
-0.0340111 0.0266228 -0.00146803 -0.0171117 -0.02331 0.000104176 -0.0203439 -0.0193455 0.00221111 
-0.014458 -0.0138423 0.00194608 -0.00968967 -0.00588877 0.00220057 -0.0209658 0.00969496 0.000103189 
-0.00730513 0.0257586 0.00172868 -0.00413281 -0.00792779 0.00428095 -0.0152744 0.0211746 0.00391635 
-0.0170652 -0.0214262 0.00845646 -0.0158837 -0.0171309 0.00994699 -0.0255762 0.00585265 0.00899648 
-0.0124469 0.0108555 0.00873245 -0.0231605 0.0109416 0.010908 -0.0306741 -0.0048619 0.0143282 
-0.0349344 -0.00127292 0.0171656 -0.0148123 0.0147393 0.0153627 -0.0109595 0.0300204 0.0143794 
-0.0265082 0.034934 0.0140742 -0.00757771 0.0326856 0.0159678 -0.0242978 0.00020127 0.0188241 
-0.0095853 0.0256603 0.0183657 -0.0341543 -0.0265255 0.0244847 -0.0279163 0.0200822 0.0222308 
-0.0165238 0.0194762 0.0246598 -0.0196325 0.0295097 0.0226229 -0.0196571 -0.0325483 0.0256769 
-0.0108823 -0.0240914 0.0280727 -0.0208036 0.00162734 0.0258258 -0.00343388 0.0316676 0.0262852 
-0.0120408 -0.0289279 0.030836 -0.0303622 -0.0214325 0.0312594 -0.0188893 -0.0164448 0.0304269 
-0.0141191 -0.0138017 0.0329461 -0.00434932 -0.0129336 0.029612 -0.00296015 0.00664907 0.0297724 
-0.027048 -0.0348853 0.0341815 -0.0252225 -0.00395457 0.0332167 -0.0250889 0.00553727 0.0363695 
-0.0184752 -0.0330418 0.0379616 -0.00344499 -0.0220199 0.0390622 -0.00418171 -0.00447311 0.037106 
-0.00876558 -0.00149609 0.0394158 -0.0256427 -0.020268 0.041494 -0.0241229 -0.00156433 0.0418568 
-0.00515441 0.000607433 0.0438725 -0.0204765 0.00703928 0.0420402 -0.0293092 0.0266251 0.04212 
-0.0346461 0.030431 0.0412672 
VERTICES 328 656
1 0 
1 1 
1 2 
1 3 
1 4 
1 5 
1 6 
1 7 
1 8 
1 9 
1 10 
1 11 
1 12 
1 13 
1 14 
1 15 
1 16 
1 17 
1 18 
1 19 
1 20 
1 21 
1 22 
1 23 
1 24 
1 25 
1 26 
1 27 
1 28 
1 29 
1 30 
1 31 
1 32 
1 33 
1 34 
1 35 
1 36 
1 37 
1 38 
1 39 
1 40 
1 41 
1 42 
1 43 
1 44 
1 45 
1 46 
1 47 
1 48 
1 49 
1 50 
1 51 
1 52 
1 53 
1 54 
1 55 
1 56 
1 57 
1 58 
1 59 
1 60 
1 61 
1 62 
1 63 
1 64 
1 65 
1 66 
1 67 
1 68 
1 69 
1 70 
1 71 
1 72 
1 73 
1 74 
1 75 
1 76 
1 77 
1 78 
1 79 
1 80 
1 81 
1 82 
1 83 
1 84 
1 85 
1 86 
1 87 
1 88 
1 89 
1 90 
1 91 
1 92 
1 93 
1 94 
1 95 
1 96 
1 97 
1 98 
1 99 
1 100 
1 101 
1 102 
1 103 
1 104 
1 105 
1 106 
1 107 
1 108 
1 109 
1 110 
1 111 
1 112 
1 113 
1 114 
1 115 
1 116 
1 117 
1 118 
1 119 
1 120 
1 121 
1 122 
1 123 
1 124 
1 125 
1 126 
1 127 
1 128 
1 129 
1 130 
1 131 
1 132 
1 133 
1 134 
1 135 
1 136 
1 137 
1 138 
1 139 
1 140 
1 141 
1 142 
1 143 
1 144 
1 145 
1 146 
1 147 
1 148 
1 149 
1 150 
1 151 
1 152 
1 153 
1 154 
1 155 
1 156 
1 157 
1 158 
1 159 
1 160 
1 161 
1 162 
1 163 
1 164 
1 165 
1 166 
1 167 
1 168 
1 169 
1 170 
1 171 
1 172 
1 173 
1 174 
1 175 
1 176 
1 177 
1 178 
1 179 
1 180 
1 181 
1 182 
1 183 
1 184 
1 185 
1 186 
1 187 
1 188 
1 189 
1 190 
1 191 
1 192 
1 193 
1 194 
1 195 
1 196 
1 197 
1 198 
1 199 
1 200 
1 201 
1 202 
1 203 
1 204 
1 205 
1 206 
1 207 
1 208 
1 209 
1 210 
1 211 
1 212 
1 213 
1 214 
1 215 
1 216 
1 217 
1 218 
1 219 
1 220 
1 221 
1 222 
1 223 
1 224 
1 225 
1 226 
1 227 
1 228 
1 229 
1 230 
1 231 
1 232 
1 233 
1 234 
1 235 
1 236 
1 237 
1 238 
1 239 
1 240 
1 241 
1 242 
1 243 
1 244 
1 245 
1 246 
1 247 
1 248 
1 249 
1 250 
1 251 
1 252 
1 253 
1 254 
1 255 
1 256 
1 257 
1 258 
1 259 
1 260 
1 261 
1 262 
1 263 
1 264 
1 265 
1 266 
1 267 
1 268 
1 269 
1 270 
1 271 
1 272 
1 273 
1 274 
1 275 
1 276 
1 277 
1 278 
1 279 
1 280 
1 281 
1 282 
1 283 
1 284 
1 285 
1 286 
1 287 
1 288 
1 289 
1 290 
1 291 
1 292 
1 293 
1 294 
1 295 
1 296 
1 297 
1 298 
1 299 
1 300 
1 301 
1 302 
1 303 
1 304 
1 305 
1 306 
1 307 
1 308 
1 309 
1 310 
1 311 
1 312 
1 313 
1 314 
1 315 
1 316 
1 317 
1 318 
1 319 
1 320 
1 321 
1 322 
1 323 
1 324 
1 325 
1 326 
1 327 

POINT_DATA 328
FIELD FieldData 7
id 1 328 int
9 24 56 30 34 16 10 31 6 
23 3 32 13 7 11 33 22 26 
2 19 5 21 42 1 57 29 50 
46 48 40 14 41 68 15 18 69 
45 28 36 12 51 43 87 108 52 
54 38 60 27 49 65 44 8 99 
4 88 35 64 101 17 55 73 59 
76 67 58 94 47 79 20 92 110 
104 74 62 53 39 71 85 82 37 
66 113 81 122 95 121 25 70 124 
109 156 325 319 78 320 158 328 97 
323 316 318 147 120 144 142 128 84 
72 89 118 105 322 83 150 166 154 
93 163 126 129 96 317 117 136 123 
171 63 77 80 162 131 90 86 119 
167 135 137 146 125 141 175 174 165 
153 100 106 112 172 133 98 61 116 
127 138 157 130 132 170 111 184 145 
160 148 176 155 102 115 91 164 161 
185 107 114 134 152 75 103 187 151 
182 177 149 139 186 168 143 140 159 
178 180 181 188 179 169 183 173 201 
189 199 192 200 193 198 190 194 196 
191 195 197 207 210 212 203 202 205 
208 209 213 211 204 206 222 224 218 
226 220 223 219 214 217 221 225 216 
215 227 235 232 229 236 230 239 234 
237 228 233 238 231 247 251 249 245 
248 250 242 240 241 252 246 243 262 
265 258 259 244 256 253 260 257 255 
264 254 263 261 271 270 272 269 268 
274 278 275 276 277 266 273 286 267 
289 279 287 288 284 285 281 290 280 
282 283 302 297 300 294 298 299 295 
292 293 291 313 315 314 312 296 301 
309 308 311 310 303 306 304 307 305 
326 321 324 327 
type 1 328 int
1 1 1 1 1 1 1 1 1 
1 1 1 1 1 1 1 1 1 
1 1 1 1 1 1 1 1 1 
1 1 1 1 1 1 1 1 1 
1 1 1 1 1 1 1 1 1 
1 1 1 1 1 1 1 1 1 
1 1 1 1 1 1 1 1 1 
1 1 1 1 1 1 1 1 1 
1 1 1 1 1 1 1 1 1 
1 1 1 1 1 1 1 1 1 
1 1 1 1 1 1 1 1 1 
1 1 1 1 1 1 1 1 1 
1 1 1 1 1 1 1 1 1 
1 1 1 1 1 1 1 1 1 
1 1 1 1 1 1 1 1 1 
1 1 1 1 1 1 1 1 1 
1 1 1 1 1 1 1 1 1 
1 1 1 1 1 1 1 1 1 
1 1 1 1 1 1 1 1 1 
1 1 1 1 1 1 1 1 1 
1 1 1 1 1 1 1 1 1 
1 1 1 1 1 1 1 1 1 
1 1 1 1 1 1 1 1 1 
1 1 1 1 1 1 1 1 1 
1 1 1 1 1 1 1 1 1 
1 1 1 1 1 1 1 1 1 
1 1 1 1 1 1 1 1 1 
1 1 1 1 1 1 1 1 1 
1 1 1 1 1 1 1 1 1 
1 1 1 1 1 1 1 1 1 
1 1 1 1 1 1 1 1 1 
1 1 1 1 1 1 1 1 1 
1 1 1 1 1 1 1 1 1 
1 1 1 1 1 1 1 1 1 
1 1 1 1 1 1 1 1 1 
1 1 1 1 1 1 1 1 1 
1 1 1 1 
i 3 328 int
0 0 0 0 0 0 0 0 0 
0 0 0 0 0 0 0 0 0 
0 0 0 0 0 0 0 0 0 
0 0 0 0 0 0 0 0 0 
0 0 0 0 0 0 0 0 0 
0 0 0 0 0 0 0 0 0 
0 0 0 0 0 0 0 0 0 
0 0 0 0 0 0 0 0 0 
0 0 0 0 0 0 0 0 0 
0 0 0 0 0 0 0 0 0 
0 0 0 0 0 0 0 0 0 
0 0 0 0 0 0 0 0 0 
0 0 0 0 0 0 0 0 0 
0 0 0 0 0 0 0 0 0 
0 0 0 0 0 0 0 0 0 
0 0 0 0 0 0 0 0 0 
0 0 0 0 0 0 0 0 0 
0 0 0 0 0 0 0 0 0 
0 0 0 0 0 0 0 0 0 
0 0 0 0 0 0 0 0 0 
0 0 0 0 0 0 0 0 0 
0 0 0 0 0 0 0 0 0 
0 0 0 0 0 0 0 0 0 
0 0 0 0 0 0 0 0 0 
0 0 0 0 0 0 0 0 0 
0 0 0 0 0 0 0 0 0 
0 0 0 0 0 0 0 0 0 
0 0 0 0 0 0 0 0 0 
0 0 0 0 0 0 0 0 0 
0 0 0 0 0 0 0 0 0 
0 0 0 0 0 0 0 0 0 
0 0 0 0 0 0 0 0 0 
0 0 0 0 0 0 0 0 0 
0 0 0 0 0 0 0 0 0 
0 0 0 0 0 0 0 0 0 
0 0 0 0 0 0 0 0 0 
0 0 0 0 0 0 0 0 0 
0 0 0 0 0 0 0 0 0 
0 0 0 0 0 0 0 0 0 
0 0 0 0 0 0 0 0 0 
0 0 0 0 0 0 0 0 0 
0 0 0 0 0 0 0 0 0 
0 0 0 0 0 0 0 0 0 
0 0 0 0 0 0 0 0 0 
0 0 0 0 0 0 0 0 0 
0 0 0 0 0 0 0 0 0 
0 0 0 0 0 0 0 0 0 
0 0 0 0 0 0 0 0 0 
0 0 0 0 0 0 0 0 0 
0 0 0 0 0 0 0 0 0 
0 0 0 0 0 0 0 0 0 
0 0 0 0 0 0 0 0 0 
0 0 0 0 0 0 0 0 0 
0 0 0 0 0 0 0 0 0 
0 0 0 0 0 0 0 0 0 
0 0 0 0 0 0 0 0 0 
0 0 0 0 0 0 0 0 0 
0 0 0 0 0 0 0 0 0 
0 0 0 0 0 0 0 0 0 
0 0 0 0 0 0 0 0 0 
0 0 0 0 0 0 0 0 0 
0 0 0 0 0 0 0 0 0 
0 0 0 0 0 0 0 0 0 
0 0 0 0 0 0 0 0 0 
0 0 0 0 0 0 0 0 0 
0 0 0 0 0 0 0 0 0 
0 0 0 0 0 0 0 0 0 
0 0 0 0 0 0 0 0 0 
0 0 0 0 0 0 0 0 0 
0 0 0 0 0 0 0 0 0 
0 0 0 0 0 0 0 0 0 
0 0 0 0 0 0 0 0 0 
0 0 0 0 0 0 0 0 0 
0 0 0 0 0 0 0 0 0 
0 0 0 0 0 0 0 0 0 
0 0 0 0 0 0 0 0 0 
0 0 0 0 0 0 0 0 0 
0 0 0 0 0 0 0 0 0 
0 0 0 0 0 0 0 0 0 
0 0 0 0 0 0 0 0 0 
0 0 0 0 0 0 0 0 0 
0 0 0 0 0 0 0 0 0 
0 0 0 0 0 0 0 0 0 
0 0 0 0 0 0 0 0 0 
0 0 0 0 0 0 0 0 0 
0 0 0 0 0 0 0 0 0 
0 0 0 0 0 0 0 0 0 
0 0 0 0 0 0 0 0 0 
0 0 0 0 0 0 0 0 0 
0 0 0 0 0 0 0 0 0 
0 0 0 0 0 0 0 0 0 
0 0 0 0 0 0 0 0 0 
0 0 0 0 0 0 0 0 0 
0 0 0 0 0 0 0 0 0 
0 0 0 0 0 0 0 0 0 
0 0 0 0 0 0 0 0 0 
0 0 0 0 0 0 0 0 0 
0 0 0 0 0 0 0 0 0 
0 0 0 0 0 0 0 0 0 
0 0 0 0 0 0 0 0 0 
0 0 0 0 0 0 0 0 0 
0 0 0 0 0 0 0 0 0 
0 0 0 0 0 0 0 0 0 
0 0 0 0 0 0 0 0 0 
0 0 0 0 0 0 0 0 0 
0 0 0 0 0 0 0 0 0 
0 0 0 0 0 0 0 0 0 
0 0 0 0 0 0 0 0 0 
0 0 0 0 0 0 0 0 0 
0 0 0 
v 3 328 double
-1.0949 -0.110003 -0.459988 -1.42056 0.379704 -0.205193 -1.28717 -0.0753447 -0.584168 
-0.926032 -0.0371786 -0.388692 -1.04219 -0.309885 -0.402294 -0.985671 0.00350639 -0.423387 
-0.659369 -0.0775838 -0.236527 -0.960038 0.225265 -0.381346 -0.756751 -0.14296 -0.365899 
-0.783708 -0.0398896 -0.418725 -0.90117 0.120101 -0.391611 -0.891734 0.0321956 -0.380135 
-0.624537 0.0545108 -0.234232 -0.778927 0.0908433 -0.519003 -0.637196 0.122583 0.00759234 
-0.849532 -0.131601 -0.270217 -0.879976 -0.0229047 -0.445013 -0.944437 0.237834 -0.346532 
-1.03755 -0.225566 -0.116077 -1.10455 -0.0972918 -0.347635 -0.838688 0.164558 -0.350332 
-0.781116 0.0730222 -0.331506 -0.594429 0.0158076 -0.249734 -0.801967 0.0745909 -0.307467 
-0.759712 0.0206013 -0.314551 -0.618521 -0.0475215 -0.249533 -0.556913 -0.051451 -0.242424 
-0.660941 0.074085 -0.419695 -0.796822 0.0727681 -0.354159 -0.737253 0.0670527 -0.306002 
-0.662634 0.0602256 -0.276517 -0.791463 0.0506923 -0.320727 -1.00347 0.218341 -0.302661 
-0.598738 0.0664543 -0.230725 -0.600084 0.0382629 -0.229783 -0.572416 0.051631 -0.26094 
-0.748218 -0.00847961 -0.312101 -0.739234 0.0192727 -0.896602 -0.965379 0.179976 -0.485891 
-0.500214 -0.031421 -0.205356 -0.55264 -0.174306 -0.206856 -0.631084 0.0390502 -0.261548 
-0.724057 -0.0720566 -0.512877 -0.944135 -0.256013 -0.352259 -0.760703 0.245767 -0.331553 
-0.988567 0.0656526 -0.549432 -0.934488 0.0714685 -0.58808 -0.756964 -0.0973118 -0.750238 
-0.959457 0.238542 -0.566913 -0.667374 -0.0555028 -0.284326 -0.484336 -0.0912764 -0.196113 
-0.623317 0.0189522 -0.31939 -0.707463 0.139261 -0.241082 -0.912765 -0.161537 -0.259695 
-0.696708 -0.0903309 -0.288477 -0.619947 0.0177791 -0.609249 -0.614368 -0.0224017 -0.264134 
-0.626601 -0.0401076 -0.265234 -0.916952 0.109034 -0.440833 -0.72593 -0.0713601 -0.309671 
-0.551155 0.0691545 -0.223541 -0.542696 -0.116455 -0.23504 -0.697499 0.218145 -0.132676 
-0.659661 -0.18297 -0.240039 -0.699754 -0.181576 -0.269695 -1.08792 -0.35408 -0.669104 
-0.505361 -0.0962216 -0.209652 -0.533655 -0.078604 -0.220739 -0.924896 -0.112541 -0.434207 
-0.648015 -0.0609541 -0.235542 -0.790946 -0.140235 -0.708634 -0.372452 -0.148634 -0.129441 
-0.671765 -0.194583 -0.212636 -0.537305 -0.0753451 -0.216268 -0.768264 -0.287594 -0.214835 
-0.75231 0.154035 -0.692085 -0.590807 -0.14934 -0.252025 -0.586399 0.167736 -0.242267 
-0.708345 -0.0374961 -0.512978 -0.690785 0.0605623 -0.275482 -0.434086 0.0648964 -0.177724 
-0.282632 0.0517837 -0.0841576 -0.619246 0.170955 -0.224818 -0.498115 -0.49576 -0.424784 
-0.658982 -0.250924 -0.51551 -0.554106 -0.0242389 -0.232297 -0.551645 0.228047 -0.246582 
-0.500989 0.0308327 -0.211839 -0.732636 -0.171112 -0.676267 -0.687674 0.354355 -0.233653 
-0.837757 0.139387 -0.987519 -0.856913 0.113647 -0.196369 0 0 -1.00731 
0 0 -1.0336 -0.488529 0.12579 -0.210848 0 0 -1.0024 
-0.66656 0.346723 -0.107966 0 0 -1.03605 -0.650109 -0.0875442 -0.26535 
0 0 -1 0 0 -1 0 0 -1.02153 
-0.721078 0.118426 -0.366729 -0.555338 -0.171795 -0.103266 -0.473699 0.000928934 -0.133692 
-0.856526 0.0923144 -0.0913805 -0.532941 -0.112513 -0.262464 -0.603665 -0.100137 -0.467134 
-0.892522 0.0581849 -0.460828 -0.629973 -0.14824 -0.296022 -0.57338 0.0946082 -0.296598 
-0.506042 -0.010392 -0.24438 0 0 -1.04812 -0.7171 -0.32824 -0.638246 
-0.534844 -0.219374 -0.554793 -0.917287 -0.200193 -0.265553 -0.804673 -0.0201622 -0.333758 
-0.710545 0.0326213 -0.481166 -0.83354 -0.361594 -0.077179 -1.03618 -0.43509 -0.16958 
-0.488742 -0.117456 0.168107 -0.713741 0.262029 -0.59171 0 0 -1.02251 
-0.326515 0.00929156 -0.134866 -0.576758 0.144346 -0.200876 -0.40058 -8.39438e-05 -0.26957 
-0.0893027 -0.522756 0.191022 -0.656701 -0.0494126 -0.485339 -0.829688 -0.0222084 -0.108473 
-0.592273 0.134632 -0.276509 -0.852857 -0.129779 -0.0487835 -0.397333 0.0658499 -0.159385 
-0.487466 0.0671588 -0.571108 -0.398614 -0.255252 -0.489422 -0.270999 -0.144828 -0.085725 
-0.757169 0.0873674 -0.28097 -0.437577 0.365422 0.0838761 -0.718017 -0.258545 0.171164 
-0.459003 0.426878 -0.229003 -0.726651 0.29919 -0.332707 -0.6988 0.217566 -0.20478 
-0.612578 -0.0487434 -0.453698 -0.91915 0.292715 -0.51529 -0.487016 -0.0363159 0.045242 
-0.57568 0.207428 -0.216491 -0.717035 0.128115 -0.522251 -0.3963 -0.0460408 -0.205109 
-0.723852 0.00933643 -0.3302 -0.285168 0.205435 0.221417 -0.729379 -0.109927 -0.0870522 
-0.474629 0.166401 -0.209254 -0.489367 -0.379171 -0.434118 -0.697265 -0.187622 -0.271271 
-0.671662 -0.242289 -0.26458 -0.390077 0.0951465 -0.30266 -0.498523 -0.00104778 -0.219621 
-0.866966 0.0983837 -0.296155 -0.963723 0.268565 0.101573 -0.597589 0.173515 -0.174462 
-0.694099 0.0796093 -0.382826 0.0892289 0.699994 -0.60878 -0.749636 0.177467 -0.0509831 
-0.503955 0.181596 -0.122221 -0.879891 0.228258 -0.158868 -0.805751 -0.203006 0.131586 
-0.359338 0.0543181 0.212836 -0.39762 -0.0574739 -0.325286 -0.461292 -0.264809 0.0703222 
-0.720609 -0.0914553 -0.477773 -0.592188 0.000661578 -0.428288 -0.610653 -0.33883 -0.250124 
-0.720821 -0.261927 0.16826 -0.154761 -0.20952 0.0592432 -0.700478 0.2882 -0.261007 
-0.721012 0.264699 -0.177039 -0.496067 -0.0942106 0.0306854 -0.667294 0.423648 -0.506137 
-0.679876 -0.176736 -0.387891 -1.22615 -0.0175084 -1.0933 -0.251622 0.116922 -0.0441353 
-0.720465 -0.294153 0.235727 -0.780298 0.379718 0.0900837 0.477704 0.379236 -1.04054 
-0.715665 0.262736 -0.13769 -0.747568 0.139546 0.232476 -0.0831319 0.0888835 -0.32148 
-0.732067 0.106089 -0.13598 -0.571036 -0.0203545 -0.358332 -0.588376 -0.269288 0.152701 
-0.616199 0.063394 -0.560252 -0.712021 -0.325915 0.0705541 -0.717043 -0.319756 0.203926 
-0.721806 0.26499 0.200922 -0.142502 -0.0333645 -0.472049 -0.137334 0.101059 -0.32972 
-0.552884 0.338637 0.0848562 0.00834485 -0.221804 -0.371816 -0.62777 0.377698 0.225546 
0.0401923 -0.354798 0.11765 -0.721224 -0.0267929 0.285434 -0.31116 -0.0859572 -1.77841 
0 0 -2.02706 0 0 -1.99174 0 0 -1.98487 
0 0 -1.9888 0 0 -1.99174 0 0 -1.98183 
0 0 -1.97261 0 0 -1.97134 0 0 -1.96947 
0 0 -1.96584 0 0 -1.95152 0 0 -1.92847 
0 0 -1.93249 0 0 -1.91974 0 0 -1.88481 
0 0 -1.88717 0 0 -1.88893 0 0 -1.89835 
0 0 -1.87422 0 0 -1.87304 0 0 -1.8702 
0 0 -1.86529 0 0 -1.85205 0 0 -1.84449 
0 0 -1.82644 0 0 -1.84086 0 0 -1.82605 
0 0 -1.80898 0 0 -1.82095 0 0 -1.80084 
0 0 -1.78524 0 0 -1.77161 0 0 -1.77082 
0 0 -1.78328 0 0 -1.75689 0 0 -1.75728 
0 0 -1.7562 0 0 -1.74129 0 0 -1.72981 
0 0 -1.70362 0 0 -1.71628 0 0 -1.7099 
0 0 -1.68381 0 0 -1.69371 0 0 -1.68695 
0 0 -1.68027 0 0 -1.69057 0 0 -1.67184 
0 0 -1.63515 0 0 -1.64486 0 0 -1.61102 
0 0 -1.62593 0 0 -1.62102 0 0 -1.61602 
0 0 -1.61357 0 0 -1.63064 0 0 -1.5914 
0 0 -1.60523 0 0 -1.58767 0 0 -1.555 
0 0 -1.55255 0 0 -1.56363 0 0 -1.55039 
0 0 -1.56442 0 0 -1.56079 0 0 -1.52204 
0 0 -1.51861 0 0 -1.53097 0 0 -1.49447 
0 0 -1.49428 0 0 -1.49653 0 0 -1.50919 
0 0 -1.49663 0 0 -1.47113 0 0 -1.4468 
0 0 -1.46053 0 0 -1.44797 0 0 -1.43502 
0 0 -1.41766 0 0 -1.40677 0 0 -1.39196 
0 0 -1.39382 0 0 -1.39206 0 0 -1.40677 
0 0 -1.39539 0 0 -1.37734 0 0 -1.37989 
0 0 -1.34722 0 0 -1.33634 0 0 -1.3433 
0 0 -1.34526 0 0 -1.32927 0 0 -1.30377 
0 0 -1.28228 0 0 -1.29602 0 0 -1.30337 
0 0 -1.30573 0 0 -1.29141 0 0 -1.26953 
0 0 -1.27306 0 0 -1.22499 0 0 -1.24294 
0 0 -1.22362 0 0 -1.23981 0 0 -1.21538 
0 0 -1.19595 0 0 -1.2142 0 0 -1.21047 
0 0 -1.173 0 0 -1.16947 0 0 -1.17643 
0 0 -1.15524 0 0 -1.1832 0 0 -1.18193 
0 0 -1.14475 0 0 -1.15299 0 0 -1.12581 
0 0 -1.11188 0 0 -1.10207 0 0 -1.11934 
0 0 -1.09893 0 0 -1.0802 0 0 -1.07696 
0 0 -1.05842 0 0 -1.07529 0 0 -1.07451 
0 0 -1.08226 
f 3 328 double
-8.47756e-05 -2.36615e-05 -3.84185e-05 0 0 -0.000346714 0 0 -0.000346714 
0 0 -0.000346714 -6.9417e-05 1.52902e-05 -7.99642e-05 -0.000342822 2.55653e-05 -0.000266067 
0 0 -0.000346714 0 0 -0.000346714 0 0 -0.000346714 
0 0 -0.000346714 -0.000442116 0.000149539 -0.000167285 -8.72948e-05 2.90074e-05 -4.04515e-05 
0 0 -0.000346714 0 0 -0.000346714 0 0 -0.000346714 
0 0 -0.000346714 0 0 -0.000346714 -0.000814138 -0.000342605 0.00094552 
0 0 -0.00160516 0 0 -0.000346714 0.000198753 -5.2985e-05 -0.00196785 
-8.88359e-05 -5.48811e-07 -3.83174e-05 -0.000100214 -1.42003e-06 -3.7891e-06 0 0 -0.00160516 
-3.64874e-05 -7.46528e-06 -0.000181898 0 0 -0.00160516 0 0 -0.000346714 
0 0 -0.000346714 0 0 -0.000346714 8.38709e-05 0.000143804 0.000281781 
-0.000388615 -6.99647e-05 -0.000232255 -0.000403684 -0.000153317 -0.000175926 0 0 -0.000346714 
0.000211081 8.12312e-05 -0.00195661 -0.000273553 0.000412352 -0.000215193 0 0 -0.000346714 
-0.000117403 -0.00120423 0.00114031 0 0 -0.00160516 0 0 -0.000346714 
0 0 -0.000346714 0 0 -0.00160516 -0.000246986 -3.57408e-05 0.000377088 
0 0 -0.000346714 0 0 -0.000346714 -0.000406129 5.12092e-05 -0.000177239 
0 0 -0.00160516 0 0 -0.00160516 0 0 -0.000346714 
0 0 -0.00160516 -8.90685e-05 -3.24528e-06 -3.78827e-05 0 0 -0.00160516 
0 0 -0.000346714 -0.000133149 -0.000117754 9.89997e-05 0 0 -0.000346714 
-0.000408491 4.56662e-05 -0.0001738 0 0 -0.000346714 -0.00072303 0.00023319 -0.000847392 
0.000864101 -0.000317105 0.00102208 0 0 -0.00160516 -0.000435164 -1.57081e-05 -0.000115396 
-8.05085e-05 -1.83681e-05 -5.40955e-05 -7.77547e-05 2.09998e-06 -8.87859e-05 0 0 -0.000346714 
-0.000391833 0.000185224 -0.000206749 -0.000382502 0.000106378 -0.000268238 0 0 -0.000346714 
-8.87311e-05 9.33544e-06 -3.79781e-05 -8.21341e-05 9.28014e-06 -4.87162e-05 0 0 -0.00160516 
-7.46861e-05 7.70263e-05 -6.20405e-05 0 0 -0.00160516 0 0 -0.000346714 
0 0 -0.00160516 -9.17989e-05 2.57975e-05 -2.61864e-05 0 0 -0.000346714 
0 0 -0.00160516 -0.00040793 -2.36032e-05 -0.000175887 -8.71159e-05 -4.83462e-06 -4.26311e-05 
0 0 -0.000346714 -8.69082e-05 -1.98824e-05 -3.36008e-05 -8.83268e-05 -2.21915e-05 -3.99459e-05 
0 0 -0.00160516 -8.46993e-05 -3.11042e-05 -3.82639e-05 0 0 -0.000346714 
0 0 -0.000346714 -3.83406e-05 -8.68911e-06 -0.000156277 0 0 -0.000346714 
-8.82853e-05 8.97572e-06 -3.74819e-05 0 0 -0.000346714 -9.07624e-05 -3.23048e-05 -2.6106e-05 
0 0 -0.000346714 0 0 -0.000346714 0 0 -0.000346714 
0 0 -0.00160516 -0.000431481 4.36623e-05 -0.000116327 0 0 -0.000346714 
0 0 -0.000346714 0 0 -0.000346714 2.0053e-05 7.93896e-06 -0.000366396 
0 0 0 0 0 0 0 0 -0.00160516 
0 0 -0.000346714 0 0 -0.000346714 0 0 -0.000346714 
0 0 -0.00160516 0 0 -0.00160516 0 0 -0.000346714 
0 0 -0.000346714 0 0 -0.00160516 0 0 -0.000346714 
0 0 -0.00160516 0 0 -0.000346714 0 0 -0.000346714 
0 0 -0.000346714 0 0 -0.00160516 0 0 -0.00160516 
0 0 -0.000346714 0 0 -0.000346714 0 0 -0.00160516 
0 0 -0.00160516 0 0 -0.000346714 0 0 -0.00160516 
-0.000391915 2.55711e-05 -0.000192489 0 0 -0.000346714 0 0 -0.000346714 
0 0 -0.000346714 0 0 -0.00160516 -0.0100428 0.00337957 -0.0361125 
0 0 -0.00160516 0 0 -0.000346714 -8.28475e-05 -1.24652e-05 -4.60375e-05 
0 0 -0.00160516 0 0 -0.000346714 -8.52101e-05 3.80207e-05 -4.24415e-05 
0 0 -0.00160516 0 0 -0.000346714 0 0 -0.000346714 
-7.60935e-05 -0.000127791 3.46579e-06 0 0 -0.000346714 0 0 -0.00160516 
0 0 -0.000346714 0 0 -0.000346714 0 0 -0.00160516 
0 0 -0.00160516 0 0 -0.000346714 0 0 -0.000346714 
0 0 -0.000346714 0 0 -0.000346714 0 0 -0.000346714 
0 0 -0.000346714 0 0 -0.000346714 0 0 -0.00160516 
0 0 -0.00160516 0 0 -0.000346714 0 0 -0.000346714 
0 0 -0.00160516 0 0 -0.000346714 0 0 -0.000346714 
0 0 -0.000346714 0 0 -0.000346714 0 0 -0.000346714 
0 0 -0.000346714 0 0 -0.000346714 -0.00134022 0.00335736 -0.0150496 
0 0 -0.000346714 0 0 -0.00160516 0 0 -0.00160516 
0 0 -0.00160516 0 0 -0.00160516 0 0 -0.000346714 
0 0 -0.000346714 0 0 -0.000346714 0 0 -0.00160516 
0 0 -0.000346714 0 0 -0.00160516 0 0 -0.000346714 
0 0 -0.00160516 0 0 -0.000346714 0 0 -0.00160516 
0 0 -0.000346714 -0.0707513 0.0130605 0.0507588 0 0 -0.000346714 
0 0 -0.00160516 0 0 -0.000346714 0 0 -0.000346714 
0 0 -0.000346714 0 0 -0.00160516 0 0 -0.000346714 
0 0 -0.00160516 0 0 -0.000346714 0 0 -0.000346714 
0 0 -0.000346714 0 0 -0.00160516 0 0 -0.000346714 
0 0 -0.000346714 0 0 -0.000346714 0 0 -0.000346714 
0.00493164 -0.00580401 0.0380251 0 0 -0.000346714 0 0 -0.00160516 
0 0 -0.000346714 0 0 -0.00160516 0 0 -0.000346714 
0 0 -0.00160516 0 0 -0.000346714 0 0 -0.000346714 
0 0 -0.00160516 0 0 -0.000346714 0 0 -0.000346714 
0 0 -0.000346714 0 0 -0.000346714 0 0 -0.000346714 
0 0 -0.00160516 0 0 -0.00160516 0 0 -0.00160516 
0 0 -0.000346714 0 0 -0.000346714 0 0 -0.000346714 
0 0 -0.000346714 0 0 -0.00160516 0 0 -0.000346714 
0 0 -0.000346714 0 0 -0.000346714 0 0 -0.000346714 
0 0 -0.000346714 0 0 -0.000346714 0 0 -0.000346714 
0 0 -0.000346714 0 0 -0.00160516 0 0 -0.00160516 
0 0 -0.000346714 0 0 -0.000346714 0 0 -0.00160516 
0 0 -0.00160516 0 0 -0.00160516 0 0 -0.000346714 
0 0 -0.000346714 0 0 -0.00160516 0 0 -0.000346714 
0 0 -0.00160516 0 0 -0.000346714 0 0 -0.000346714 
0 0 -0.000346714 0 0 -0.00160516 0 0 -0.000346714 
0 0 -0.000346714 0 0 -0.000346714 0 0 -0.000346714 
0 0 -0.000346714 0 0 -0.000346714 0 0 -0.000346714 
0 0 -0.000346714 0 0 -0.000346714 0 0 -0.00160516 
0 0 -0.00160516 0 0 -0.00160516 0 0 -0.000346714 
0 0 -0.000346714 0 0 -0.00160516 0 0 -0.000346714 