# vtk DataFile Version 4.0
Generated by LIGGGHTS
ASCII
DATASET POLYDATA
POINTS 844 float
-0.203677 0.0261727 -0.189284 -0.201548 -0.0155152 -0.189933 -0.460582 -0.0350531 -0.398392 
-0.477734 -0.00394285 -0.399665 -0.457146 -0.0142824 -0.396618 -0.44381 -0.021466 -0.392091 
-0.467213 -0.00958825 -0.389931 -0.464796 -0.00705847 -0.392353 -0.478407 -0.0105919 -0.386779 
-0.47063 -0.00765001 -0.387388 -0.482358 -0.00131095 -0.386462 -0.466063 0.0176856 -0.387138 
-0.450378 -0.0110568 -0.384209 -0.466878 -0.00651059 -0.38356 -0.469531 -0.0377142 -0.37791 
-0.453284 -0.0274783 -0.374658 -0.461567 -0.00968338 -0.378404 -0.449176 -0.00166989 -0.375097 
-0.460519 0.0018355 -0.375792 -0.448235 0.0166681 -0.377849 -0.451748 0.0225049 -0.376082 
-0.465091 -0.00855572 -0.373618 -0.444511 0.00415684 -0.374303 -0.447844 0.0380612 -0.372044 
-0.453972 -0.00941798 -0.370515 -0.437043 0.0105617 -0.369398 -0.43793 0.0136772 -0.368954 
-0.455078 -0.0163483 -0.36493 -0.450454 -0.00669734 -0.363649 -0.436676 0.00561081 -0.365018 
-0.445699 -0.0023291 -0.362692 -0.452588 0.00201643 -0.360086 -0.446191 0.00350202 -0.357105 
-0.461173 0.00835187 -0.358406 -0.435385 0.0126366 -0.358321 -0.449267 -0.000707575 -0.356319 
-0.453216 -0.00653627 -0.352332 -0.417937 0.00648471 -0.349323 -0.442584 -0.00215686 -0.345831 
-0.426791 -0.0196168 -0.344721 -0.425756 -0.00777375 -0.343388 -0.423589 0.00275688 -0.343156 
-0.404407 0.0102052 -0.342964 -0.428376 0.0121997 -0.343362 -0.417769 0.0122399 -0.342086 
-0.435042 -0.0131764 -0.339839 -0.423708 -0.0128014 -0.339631 -0.42495 -0.00342933 -0.341326 
-0.418786 -0.00976848 -0.337368 -0.456935 0.00165026 -0.338697 -0.402751 0.00294815 -0.334369 
-0.418479 0.0076115 -0.334706 -0.41317 0.00837791 -0.336639 -0.436396 0.0119916 -0.335828 
-0.433464 -0.0376303 -0.332575 -0.42475 -0.0264182 -0.332654 -0.4224 -0.0215791 -0.331339 
-0.433366 -0.00752283 -0.33396 -0.423563 -0.00276157 -0.330536 -0.41493 0.000102706 -0.332637 
-0.437402 0.00717578 -0.332653 -0.434588 -0.0101177 -0.328615 -0.418916 -0.00489313 -0.329978 
-0.40558 -0.00078488 -0.329716 -0.430777 0.00321806 -0.32769 -0.41245 0.00459174 -0.329446 
-0.434589 0.0158465 -0.328993 -0.412319 -0.00109136 -0.324483 -0.413999 0.00584596 -0.323483 
-0.420815 0.00732498 -0.32431 -0.415644 0.0091465 -0.326724 -0.416844 -0.00179636 -0.323191 
-0.412747 -0.00204714 -0.319732 -0.402046 0.00595974 -0.322924 -0.376866 0.00480087 -0.321731 
-0.42238 0.0134121 -0.322189 -0.402958 0.0114519 -0.322027 -0.426966 -0.00382469 -0.318698 
-0.422584 -0.00112243 -0.316659 -0.40151 0.00104023 -0.318118 -0.42238 0.0172527 -0.316162 
-0.41427 -0.0117031 -0.312425 -0.402054 0.00401349 -0.315079 -0.398991 0.00698959 -0.313085 
-0.435652 0.00749194 -0.31347 -0.409278 0.0100433 -0.312986 -0.393423 0.00976395 -0.317117 
-0.423988 -0.0283988 -0.310069 -0.417123 0.0169872 -0.310073 -0.416522 -0.0258093 -0.306355 
-0.402334 -0.0190247 -0.305784 -0.396186 -0.00838319 -0.307911 -0.38424 0.00158469 -0.305346 
-0.41587 0.00579598 -0.307188 -0.403712 0.00512493 -0.307341 -0.416067 0.0135663 -0.306117 
-0.409353 -0.0068825 -0.303486 -0.398863 -0.00496735 -0.303601 -0.388998 0.00410532 -0.303679 
-0.401313 -0.0107708 -0.297528 -0.416172 -0.00291633 -0.300619 -0.403297 -0.00499638 -0.299494 
-0.390415 -0.00595719 -0.298933 -0.39946 -0.002761 -0.297869 -0.393978 -0.00324466 -0.300191 
-0.404474 0.0158914 -0.298582 -0.378991 -0.0223754 -0.295711 -0.39836 -0.0133385 -0.293753 
-0.399339 -0.00577128 -0.294124 -0.405646 0.00326274 -0.294392 -0.397064 -0.00724159 -0.290144 
-0.38674 -0.00365426 -0.291583 -0.39127 0.00191493 -0.292926 -0.387095 -0.00618806 -0.287775 
-0.392043 0.00467933 -0.286647 -0.391347 0.0127097 -0.288813 -0.394981 0.0165261 -0.289356 
-0.382917 -0.00888081 -0.282663 -0.383644 -0.0046803 -0.282572 -0.382377 0.00058241 -0.283069 
-0.382394 0.00428195 -0.286021 -0.384018 0.00746746 -0.285339 -0.383095 0.0117673 -0.283709 
-0.400785 0.0437913 -0.284163 -0.381103 -0.0123159 -0.279525 -0.380908 -0.00264314 -0.278916 
-0.374795 0.00775567 -0.278151 -0.373886 -0.0115205 -0.272669 -0.371814 0.00871098 -0.271642 
-0.368405 0.0120889 -0.274711 -0.368872 0.020187 -0.272829 -0.37011 -0.0127704 -0.26959 
-0.364725 0.00132477 -0.269402 -0.360526 0.00603539 -0.268335 -0.367961 0.0155338 -0.268481 
-0.377164 0.0239121 -0.27121 -0.383228 0.0390652 -0.269395 -0.378131 -0.0322812 -0.266777 
-0.372608 -0.0264729 -0.267074 -0.360238 0.00285175 -0.264537 -0.364593 0.011738 -0.266739 
-0.362148 0.0142941 -0.264608 -0.361077 0.0244369 -0.267108 -0.359908 -0.0194178 -0.260316 
-0.363315 -0.0153409 -0.263222 -0.357169 -0.00735042 -0.262606 -0.357846 -0.00209984 -0.262003 
-0.356486 0.00406352 -0.261642 -0.361842 0.00785893 -0.262591 -0.358461 0.00979262 -0.260811 
-0.36353 0.0199027 -0.263689 -0.359207 0.0200674 -0.260375 -0.350125 0.00280863 -0.257589 
-0.352069 0.00815382 -0.257847 -0.350236 0.0122039 -0.258189 -0.363149 0.0243841 -0.258024 
-0.361694 -0.0374419 -0.256006 -0.346953 -0.011863 -0.254446 -0.347608 -0.00446202 -0.255589 
-0.345161 -0.00557384 -0.254181 -0.342514 -0.0049463 -0.252144 -0.345499 0.00287043 -0.254597 
-0.344622 0.00818278 -0.253299 -0.348348 0.0115654 -0.252952 -0.355519 0.0207674 -0.25611 
-0.352866 0.0317518 -0.253662 -0.351535 -0.0285075 -0.251663 -0.343763 -0.00873305 -0.251754 
-0.338849 -0.00931312 -0.250571 -0.34138 -0.00262819 -0.250534 -0.342853 0.00460695 -0.251572 
-0.338641 0.00548177 -0.250081 -0.368327 0.0130917 -0.249959 -0.337894 0.0137059 -0.248661 
-0.34379 0.0218959 -0.250659 -0.343003 -0.0275455 -0.247852 -0.337402 -0.0158991 -0.247699 
-0.336512 -0.0116101 -0.248014 -0.332344 -0.0122871 -0.243889 -0.331121 0.0112182 -0.244429 
-0.336959 0.0199651 -0.245541 -0.367961 0.0484716 -0.247545 -0.326476 0.00945361 -0.243287 
-0.32144 0.00868626 -0.241134 -0.338996 0.0350629 -0.243697 -0.337469 -0.0367157 -0.241119 
-0.316083 -0.00955987 -0.237768 -0.315654 0.0188785 -0.237293 -0.322838 0.0211639 -0.23985 
-0.312586 -0.030514 -0.233174 -0.313711 -0.0190827 -0.236556 -0.308033 -0.0134229 -0.235026 
-0.303724 -0.010113 -0.233674 -0.305494 -0.000628504 -0.234933 -0.302744 -0.000872913 -0.233763 
-0.307325 0.0147759 -0.234615 -0.309238 0.0224823 -0.233914 -0.32795 0.0357585 -0.237589 
-0.342539 -0.0525621 -0.234481 -0.301769 -0.0182604 -0.23167 -0.302482 -0.00720524 -0.233431 
-0.297225 -0.00704702 -0.230136 -0.300133 0.000304439 -0.231363 -0.299033 0.00679135 -0.23181 
-0.299703 0.0134219 -0.231672 -0.295331 -0.017123 -0.229295 -0.289701 -0.0176489 -0.226845 
-0.291318 -0.00338541 -0.228855 -0.291949 0.00116503 -0.228096 -0.28778 7.26714e-05 -0.227479 
-0.293764 0.0069834 -0.228492 -0.293407 0.0140619 -0.227851 -0.29495 0.0200114 -0.228436 
-0.291696 0.0185345 -0.226281 -0.299363 0.026364 -0.227943 -0.301129 0.0301381 -0.228648 
-0.287734 -0.0207396 -0.224345 -0.279088 -0.0140901 -0.222883 -0.286652 -0.00692952 -0.225681 
-0.281111 -0.00862131 -0.223237 -0.27652 -0.0018826 -0.22266 -0.282146 0.00548602 -0.224772 
-0.288639 0.00822933 -0.227144 -0.278903 0.0103099 -0.22314 -0.28171 0.0154363 -0.223763 
-0.282133 0.020936 -0.222955 -0.294666 0.023214 -0.224332 -0.28776 0.0219776 -0.224026 
-0.28506 0.0254385 -0.223365 -0.301185 0.0369352 -0.225278 -0.304011 0.0442773 -0.223922 
-0.275541 -0.0241376 -0.21972 -0.272174 -0.0193237 -0.219227 -0.276089 -0.0152624 -0.221496 
-0.276751 -0.0109246 -0.221154 -0.269988 -0.0118355 -0.219313 -0.272187 -0.0100938 -0.220394 
-0.276247 -0.00594502 -0.221325 -0.269033 -0.00394007 -0.219441 -0.272692 0.000280541 -0.219728 
-0.269724 0.00498495 -0.219605 -0.272945 0.00735136 -0.22085 -0.274919 0.0106973 -0.221474 
-0.27484 0.0139474 -0.221089 -0.273728 0.0165716 -0.219902 -0.279001 0.0238912 -0.220046 
-0.282178 0.0248058 -0.22229 -0.317468 -0.0591488 -0.21983 -0.275844 -0.0286728 -0.218724 
-0.268786 -0.0071045 -0.218108 -0.262276 -0.00496431 -0.21655 -0.263674 -0.000739585 -0.216194 
-0.289094 0.00672245 -0.216646 -0.266942 0.00537244 -0.218409 -0.259511 0.00613064 -0.215236 
-0.271201 0.0105185 -0.218854 -0.267421 0.0119576 -0.218284 -0.269654 0.0155386 -0.217575 
-0.287526 0.0424787 -0.21853 -0.258579 -0.0128038 -0.213323 -0.25503 -0.0094228 -0.21329 
-0.254547 0.00617441 -0.212069 -0.266531 0.0247228 -0.214769 -0.2707 0.0288172 -0.215311 
-0.261383 -0.0375419 -0.210007 -0.257658 -0.0322769 -0.209057 -0.252662 -0.0255375 -0.208709 
-0.249369 -0.0224125 -0.209082 -0.25215 -0.0194501 -0.209679 -0.247076 -0.0124114 -0.209573 
-0.252012 -0.00768421 -0.211011 -0.260542 -0.00434896 -0.212103 -0.248017 0.00566484 -0.209327 
-0.251289 0.019304 -0.210382 -0.256015 0.0332508 -0.20921 -0.246823 -0.0300106 -0.206251 
-0.248169 -0.0269518 -0.207189 -0.246953 -0.0233472 -0.207359 -0.240967 -0.0144476 -0.206834 
-0.26338 -0.0103138 -0.205928 -0.237667 -0.0113329 -0.205411 -0.242415 -0.00586317 -0.208126 
-0.233825 0.00573155 -0.20445 -0.242345 0.0123824 -0.207631 -0.239351 0.0179632 -0.205594 
-0.286712 0.0600808 -0.208043 -0.24849 -0.0435678 -0.202533 -0.239711 -0.0292956 -0.202567 
-0.241376 -0.0235591 -0.20446 -0.233516 -0.022882 -0.202288 -0.23749 -0.0201202 -0.20453 
-0.233604 -0.0153006 -0.203611 -0.233513 -0.000708585 -0.203435 -0.227836 -0.000319773 -0.20192 
-0.238842 0.00692705 -0.204704 -0.231284 0.00358439 -0.20218 -0.227188 0.00426988 -0.201419 
-0.22964 0.00719996 -0.20265 -0.23615 0.0177115 -0.203202 -0.235573 0.0264084 -0.202521 
-0.242165 0.0285982 -0.204734 -0.233835 -0.0339563 -0.19886 -0.226225 -0.0289795 -0.198004 
-0.229416 -0.0272328 -0.199729 -0.223596 -0.0222524 -0.198356 -0.228783 -0.0157544 -0.200429 
-0.22388 -0.0115939 -0.199795 -0.218749 -0.00821309 -0.197939 -0.223021 0.00234497 -0.199963 
-0.223311 0.0064695 -0.200002 -0.220092 0.00629065 -0.198666 -0.22756 0.00886625 -0.199656 
-0.228848 0.0138812 -0.200623 -0.223032 0.0112853 -0.1985 -0.214127 -0.0160163 -0.194181 
-0.218916 -0.013353 -0.196456 -0.211944 -0.0119908 -0.194757 -0.215355 -0.0073255 -0.196614 
[...]
POINT_DATA 844
FIELD FieldData 7
id 1 844 int
635 519 149 219 295 220 286 279 320 
189 348 208 180 115 337 301 355 236 
190 309 325 193 289 272 256 184 288 
221 212 318 207 266 323 319 311 315 
413 172 324 249 106 251 197 160 254 
365 317 217 313 396 169 341 250 242 
297 338 312 350 229 284 179 403 255 
107 308 310 264 333 261 370 352 280 
269 235 213 380 345 379 307 225 332 
253 346 168 267 240 389 381 404 405 
321 425 283 294 306 356 373 305 344 
303 406 391 247 378 322 504 359 237 
316 383 336 241 330 285 354 401 463 
376 226 331 334 411 384 339 329 291 
173 328 296 438 392 335 441 402 367 
457 439 398 456 395 326 298 362 386 
371 248 393 377 414 468 419 369 426 
481 429 496 535 358 388 273 415 374 
424 421 407 448 360 432 349 400 394 
447 584 410 423 437 452 409 443 382 
446 510 442 276 490 523 470 475 399 
467 195 385 462 428 465 449 540 477 
618 464 387 343 427 513 473 460 430 
472 469 478 458 471 502 357 483 461 
484 351 434 408 451 353 550 440 480 
390 459 431 397 494 436 418 363 476 
422 479 435 433 554 500 375 466 416 
453 417 533 525 499 568 412 505 599 
561 340 364 368 450 509 526 455 492 
558 537 573 501 560 508 543 522 582 
482 366 507 583 541 518 515 361 564 
611 619 645 538 530 566 596 630 546 
420 493 603 498 495 454 445 444 556 
529 572 578 615 520 581 489 553 497 
514 512 551 591 524 548 574 549 511 
559 576 545 563 531 542 503 589 506 
488 491 528 474 588 534 547 614 487 
527 594 532 656 562 521 517 719 516 
676 675 571 620 586 677 648 565 683 
627 604 557 485 609 889 870 821 814 
602 820 871 486 577 610 606 892 804 
650 555 661 587 552 698 658 654 598 
633 851 655 624 608 628 682 711 595 
674 570 742 580 575 629 590 702 647 
613 662 666 707 612 643 632 680 621 
607 585 625 644 673 536 600 734 692 
567 699 736 694 715 775 616 634 617 
640 631 671 681 641 685 592 669 721 
636 544 725 263 637 712 700 691 539 
716 668 697 597 690 653 639 638 726 
657 649 642 569 626 652 593 601 688 
622 739 744 660 665 678 651 720 717 
704 703 646 727 713 670 663 684 718 
755 679 774 701 710 686 623 667 714 
664 735 730 747 696 741 784 724 732 
672 579 794 754 812 760 756 709 777 
750 753 708 757 748 695 782 729 776 
706 788 803 771 769 733 722 737 790 
723 738 822 789 827 792 687 785 853 
740 728 762 759 805 752 826 773 809 
781 751 765 693 795 705 766 780 778 
787 813 689 746 839 768 800 823 743 
783 767 801 764 797 808 840 796 866 
772 810 763 811 856 828 817 731 779 
798 829 761 791 846 830 816 819 758 
845 799 836 831 852 841 815 793 818 
806 843 824 838 849 872 844 1077 859 
1082 1074 891 807 1076 1080 1085 1084 863 
1083 1081 880 900 1079 1078 770 879 835 
834 848 903 918 874 931 833 847 919 
749 881 915 858 873 786 913 899 878 
875 842 867 911 861 868 912 894 837 
825 916 855 922 890 877 659 865 898 
896 929 909 888 924 887 857 876 854 
832 905 885 886 882 883 862 923 893 
869 921 897 945 935 901 943 933 895 
928 908 946 936 930 940 920 938 927 
902 904 910 944 860 941 925 864 939 
937 926 907 884 914 932 906 942 934 
917 850 802 953 957 948 951 947 954 
955 745 956 958 605 949 950 952 966 
968 961 965 962 963 969 971 970 959 
964 967 960 978 975 976 972 983 980 
981 979 977 974 982 973 992 986 993 
989 991 987 988 995 984 994 1004 1009 
990 996 985 1007 1001 1006 1008 1003 997 
1002 999 1014 998 1005 1020 1000 1019 1013 
1022 1021 1017 1011 1018 1015 1016 1010 1012 
1031 1026 1027 1029 1025 1028 1034 1032 1024 
1033 1035 1030 1040 1042 1023 1047 1038 1045 
1037 1036 1041 1039 1043 1044 1046 1048 1052 
1049 1051 1057 1053 1059 1054 1055 1056 1050 
1058 1061 1065 1066 1062 1060 1070 1071 1069 
1072 1068 1063 1064 1067 1073 1075 
type 1 844 int
1 1 1 1 1 1 1 1 1 
1 1 1 1 1 1 1 1 1 
1 1 1 1 1 1 1 1 1 
1 1 1 1 1 1 1 1 1 
1 1 1 1 1 1 1 1 1 
1 1 1 1 1 1 1 1 1 
1 1 1 1 1 1 1 1 1 
1 1 1 1 1 1 1 1 1 
1 1 1 1 1 1 1 1 1 
1 1 1 1 1 1 1 1 1 
1 1 1 1 1 1 1 1 1 
1 1 1 1 1 1 1 1 1 
1 1 1 1 1 1 1 1 1 
1 1 1 1 1 1 1 1 1 
1 1 1 1 1 1 1 1 1 
1 1 1 1 1 1 1 1 1 
1 1 1 1 1 1 1 1 1 
1 1 1 1 1 1 1 1 1 
1 1 1 1 1 1 1 1 1 
1 1 1 1 1 1 1 1 1 
1 1 1 1 1 1 1 1 1 
1 1 1 1 1 1 1 1 1 
1 1 1 1 1 1 1 1 1 
1 1 1 1 1 1 1 1 1 
1 1 1 1 1 1 1 1 1 
1 1 1 1 1 1 1 1 1 
1 1 1 1 1 1 1 1 1 
1 1 1 1 1 1 1 1 1 
1 1 1 1 1 1 1 1 1 
1 1 1 1 1 1 1 1 1 
1 1 1 1 1 1 1 1 1 
1 1 1 1 1 1 1 1 1 
1 1 1 1 1 1 1 1 1 
1 1 1 1 1 1 1 1 1 
1 1 1 1 1 1 1 1 1 
1 1 1 1 1 1 1 1 1 
1 1 1 1 1 1 1 1 1 
1 1 1 1 1 1 1 1 1 
1 1 1 1 1 1 1 1 1 
1 1 1 1 1 1 1 1 1 
1 1 1 1 1 1 1 1 1 
1 1 1 1 1 1 1 1 1 
1 1 1 1 1 1 1 1 1 
1 1 1 1 1 1 1 1 1 
1 1 1 1 1 1 1 1 1 
1 1 1 1 1 1 1 1 1 
1 1 1 1 1 1 1 1 1 
1 1 1 1 1 1 1 1 1 
1 1 1 1 1 1 1 1 1 
1 1 1 1 1 1 1 1 1 
1 1 1 1 1 1 1 1 1 
1 1 1 1 1 1 1 1 1 
1 1 1 1 1 1 1 1 1 
1 1 1 1 1 1 1 1 1 
1 1 1 1 1 1 1 1 1 
1 1 1 1 1 1 1 1 1 
1 1 1 1 1 1 1 1 1 
1 1 1 1 1 1 1 1 1 
1 1 1 1 1 1 1 1 1 
1 1 1 1 1 1 1 1 1 
1 1 1 1 1 1 1 1 1 
1 1 1 1 1 1 1 1 1 
1 1 1 1 1 1 1 1 1 
1 1 1 1 1 1 1 1 1 
1 1 1 1 1 1 1 1 1 
1 1 1 1 1 1 1 1 1 
1 1 1 1 1 1 1 1 1 
1 1 1 1 1 1 1 1 1 
1 1 1 1 1 1 1 1 1 
1 1 1 1 1 1 1 1 1 
1 1 1 1 1 1 1 1 1 
1 1 1 1 1 1 1 1 1 
1 1 1 1 1 1 1 1 1 
1 1 1 1 1 1 1 1 1 
1 1 1 1 1 1 1 1 1 
1 1 1 1 1 1 1 1 1 
1 1 1 1 1 1 1 1 1 
1 1 1 1 1 1 1 1 1 
1 1 1 1 1 1 1 1 1 
1 1 1 1 1 1 1 1 1 
1 1 1 1 1 1 1 1 1 
1 1 1 1 1 1 1 1 1 
1 1 1 1 1 1 1 1 1 
1 1 1 1 1 1 1 1 1 
1 1 1 1 1 1 1 1 1 
1 1 1 1 1 1 1 1 1 
1 1 1 1 1 1 1 1 1 
1 1 1 1 1 1 1 1 1 
1 1 1 1 1 1 1 1 1 
1 1 1 1 1 1 1 1 1 
1 1 1 1 1 1 1 1 1 
1 1 1 1 1 1 1 1 1 
1 1 1 1 1 1 1 1 1 
1 1 1 1 1 1 1 
i 3 844 int
0 0 0 0 0 0 0 0 0 
0 0 0 0 0 0 0 0 0 
0 0 0 0 0 0 0 0 0 
0 0 0 0 0 0 0 0 0 
0 0 0 0 0 0 0 0 0 
0 0 0 0 0 0 0 0 0 
0 0 0 0 0 0 0 0 0 
0 0 0 0 0 0 0 0 0 
0 0 0 0 0 0 0 0 0 
0 0 0 0 0 0 0 0 0 
0 0 0 0 0 0 0 0 0 
0 0 0 0 0 0 0 0 0 
0 0 0 0 0 0 0 0 0 
0 0 0 0 0 0 0 0 0 
0 0 0 0 0 0 0 0 0 
0 0 0 0 0 0 0 0 0 
0 0 0 0 0 0 0 0 0 
0 0 0 0 0 0 0 0 0 
0 0 0 0 0 0 0 0 0 
0 0 0 0 0 0 0 0 0 
0 0 0 0 0 0 0 0 0 
0 0 0 0 0 0 0 0 0 
0 0 0 0 0 0 0 0 0 
0 0 0 0 0 0 0 0 0 
0 0 0 0 0 0 0 0 0 
0 0 0 0 0 0 0 0 0 
0 0 0 0 0 0 0 0 0 
0 0 0 0 0 0 0 0 0 
0 0 0 0 0 0 0 0 0 
0 0 0 0 0 0 0 0 0 
0 0 0 0 0 0 0 0 0 
0 0 0 0 0 0 0 0 0 
0 0 0 0 0 0 0 0 0 
0 0 0 0 0 0 0 0 0 
0 0 0 0 0 0 0 0 0 
0 0 0 0 0 0 0 0 0 
0 0 0 0 0 0 0 0 0 
0 0 0 0 0 0 0 0 0 
0 0 0 0 0 0 0 0 0 
0 0 0 0 0 0 0 0 0 
0 0 0 0 0 0 0 0 0 
0 0 0 0 0 0 0 0 0 
0 0 0 0 0 0 0 0 0 
0 0 0 0 0 0 0 0 0 
0 0 0 0 0 0 0 0 0 
0 0 0 0 0 0 0 0 0 
0 0 0 0 0 0 0 0 0 
0 0 0 0 0 0 0 0 0 
0 0 0 0 0 0 0 0 0 
0 0 0 0 0 0 0 0 0 
0 0 0 0 0 0 0 0 0 
0 0 0 0 0 0 0 0 0 
0 0 0 0 0 0 0 0 0 
0 0 0 0 0 0 0 0 0 
0 0 0 0 0 0 0 0 0 
0 0 0 0 0 0 0 0 0 
0 0 0 0 0 0 0 0 0 
0 0 0 0 0 0 0 0 0 
0 0 0 0 0 0 0 0 0 
0 0 0 0 0 0 0 0 0 
0 0 0 0 0 0 0 0 0 
0 0 0 0 0 0 0 0 0 
0 0 0 0 0 0 0 0 0 
0 0 0 0 0 0 0 0 0 
0 0 0 0 0 0 0 0 0 
0 0 0 0 0 0 0 0 0 
0 0 0 0 0 0 0 0 0 
0 0 0 0 0 0 0 0 0 
0 0 0 0 0 0 0 0 0 
0 0 0 0 0 0 0 0 0 
0 0 0 0 0 0 0 0 0 
0 0 0 0 0 0 0 0 0 
0 0 0 0 0 0 0 0 0 
0 0 0 0 0 0 0 0 0 
0 0 0 0 0 0 0 0 0 
0 0 0 0 0 0 0 0 0 
0 0 0 0 0 0 0 0 0 
0 0 0 0 0 0 0 0 0 
0 0 0 0 0 0 0 0 0 
0 0 0 0 0 0 0 0 0 
0 0 0 0 0 0 0 0 0 
0 0 0 0 0 0 0 0 0 
0 0 0 0 0 0 0 0 0 
0 0 0 0 0 0 0 0 0 
0 0 0 0 0 0 0 0 0 
0 0 0 0 0 0 0 0 0 
0 0 0 0 0 0 0 0 0 
0 0 0 0 0 0 0 0 0 
0 0 0 0 0 0 0 0 0 
0 0 0 0 0 0 0 0 0 
0 0 0 0 0 0 0 0 0 
0 0 0 0 0 0 0 0 0 
0 0 0 0 0 0 0 0 0 
0 0 0 0 0 0 0 0 0 
0 0 0 0 0 0 0 0 0 
0 0 0 0 0 0 0 0 0 
0 0 0 0 0 0 0 0 0 
0 0 0 0 0 0 0 0 0 
0 0 0 0 0 0 0 0 0 
0 0 0 0 0 0 0 0 0 
0 0 0 0 0 0 0 0 0 
0 0 0 0 0 0 0 0 0 
0 0 0 0 0 0 0 0 0 
0 0 0 0 0 0 0 0 0 
0 0 0 0 0 0 0 0 0 
0 0 0 0 0 0 0 0 0 
0 0 0 0 0 0 0 0 0 
0 0 0 0 0 0 0 0 0 
0 0 0 0 0 0 0 0 0 
0 0 0 0 0 0 0 0 0 
0 0 0 0 0 0 0 0 0 
0 0 0 0 0 0 0 0 0 
0 0 0 0 0 0 0 0 0 
0 0 0 0 0 0 0 0 0 
0 0 0 0 0 0 0 0 0 
0 0 0 0 0 0 0 0 0 
0 0 0 0 0 0 0 0 0 
0 0 0 0 0 0 0 0 0 
0 0 0 0 0 0 0 0 0 
0 0 0 0 0 0 0 0 0 
0 0 0 0 0 0 0 0 0 
0 0 0 0 0 0 0 0 0 
0 0 0 0 0 0 0 0 0 
0 0 0 0 0 0 0 0 0 
0 0 0 0 0 0 0 0 0 
0 0 0 0 0 0 0 0 0 
0 0 0 0 0 0 0 0 0 
0 0 0 0 0 0 0 0 0 
0 0 0 0 0 0 0 0 0 
0 0 0 0 0 0 0 0 0 
0 0 0 0 0 0 0 0 0 
0 0 0 0 0 0 0 0 0 
0 0 0 0 0 0 0 0 0 
0 0 0 0 0 0 0 0 0 
0 0 0 0 0 0 0 0 0 
0 0 0 0 0 0 0 0 0 
0 0 0 0 0 0 0 0 0 
0 0 0 0 0 0 0 0 0 
0 0 0 0 0 0 0 0 0 
0 0 0 0 0 0 0 0 0 
0 0 0 0 0 0 0 0 0 
0 0 0 0 0 0 0 0 0 
0 0 0 0 0 0 0 0 0 
0 0 0 0 0 0 0 0 0 
0 0 0 0 0 0 0 0 0 
0 0 0 0 0 0 0 0 0 
0 0 0 0 0 0 0 0 0 
0 0 0 0 0 0 0 0 0 
0 0 0 0 0 0 0 0 0 
0 0 0 0 0 0 0 0 0 
0 0 0 0 0 0 0 0 0 
0 0 0 0 0 0 0 0 0 
0 0 0 0 0 0 0 0 0 
0 0 0 0 0 0 0 0 0 
0 0 0 0 0 0 0 0 0 
0 0 0 0 0 0 0 0 0 
0 0 0 0 0 0 0 0 0 
0 0 0 0 0 0 0 0 0 
0 0 0 0 0 0 0 0 0 
0 0 0 0 0 0 0 0 0 
0 0 0 0 0 0 0 0 0 
0 0 0 0 0 0 0 0 0 
0 0 0 0 0 0 0 0 0 
0 0 0 0 0 0 0 0 0 
0 0 0 0 0 0 0 0 0 
0 0 0 0 0 0 0 0 0 
0 0 0 0 0 0 0 0 0 
0 0 0 0 0 0 0 0 0 
0 0 0 0 0 0 0 0 0 
0 0 0 0 0 0 0 0 0 
0 0 0 0 0 0 0 0 0 
0 0 0 0 0 0 0 0 0 
0 0 0 0 0 0 0 0 0 
0 0 0 0 0 0 0 0 0 
0 0 0 0 0 0 0 0 0 
0 0 0 0 0 0 0 0 0 
0 0 0 0 0 0 0 0 0 
0 0 0 0 0 0 0 0 0 
0 0 0 0 0 0 0 0 0 
0 0 0 0 0 0 0 0 0 
0 0 0 0 0 0 0 0 0 
0 0 0 0 0 0 0 0 0 
0 0 0 0 0 0 0 0 0 
0 0 0 0 0 0 0 0 0 
0 0 0 0 0 0 0 0 0 
0 0 0 0 0 0 0 0 0 
0 0 0 0 0 0 0 0 0 
0 0 0 0 0 0 0 0 0 
0 0 0 0 0 0 0 0 0 
0 0 0 0 0 0 0 0 0 
0 0 0 0 0 0 0 0 0 
0 0 0 0 0 0 0 0 0 
0 0 0 0 0 0 0 0 0 
0 0 0 0 0 0 0 0 0 
0 0 0 0 0 0 0 0 0 
0 0 0 0 0 0 0 0 0 
0 0 0 0 0 0 0 0 0 
0 0 0 0 0 0 0 0 0 
0 0 0 0 0 0 0 0 0 
0 0 0 0 0 0 0 0 0 
0 0 0 0 0 0 0 0 0 
0 0 0 0 0 0 0 0 0 
0 0 0 0 0 0 0 0 0 
0 0 0 0 0 0 0 0 0 
0 0 0 0 0 0 0 0 0 
0 0 0 0 0 0 0 0 0 
0 0 0 0 0 0 0 0 0 
0 0 0 0 0 0 0 0 0 
0 0 0 0 0 0 0 0 0 
0 0 0 0 0 0 0 0 0 
0 0 0 0 0 0 0 0 0 
0 0 0 0 0 0 0 0 0 
0 0 0 0 0 0 0 0 0 
0 0 0 0 0 0 0 0 0 
0 0 0 0 0 0 0 0 0 
0 0 0 0 0 0 0 0 0 
0 0 0 0 0 0 0 0 0 
0 0 0 0 0 0 0 0 0 
0 0 0 0 0 0 0 0 0 
0 0 0 0 0 0 0 0 0 
0 0 0 0 0 0 0 0 0 
0 0 0 0 0 0 0 0 0 
0 0 0 0 0 0 0 0 0 
0 0 0 0 0 0 0 0 0 
0 0 0 0 0 0 0 0 0 
0 0 0 0 0 0 0 0 0 
0 0 0 0 0 0 0 0 0 
0 0 0 0 0 0 0 0 0 
0 0 0 0 0 0 0 0 0 
0 0 0 0 0 0 0 0 0 
0 0 0 0 0 0 0 0 0 
0 0 0 0 0 0 0 0 0 
0 0 0 0 0 0 0 0 0 
0 0 0 0 0 0 0 0 0 
0 0 0 0 0 0 0 0 0 
0 0 0 0 0 0 0 0 0 
0 0 0 0 0 0 0 0 0 
0 0 0 0 0 0 0 0 0 
0 0 0 0 0 0 0 0 0 
0 0 0 0 0 0 0 0 0 
0 0 0 0 0 0 0 0 0 
0 0 0 0 0 0 0 0 0 
0 0 0 0 0 0 0 0 0 
0 0 0 0 0 0 0 0 0 
0 0 0 0 0 0 0 0 0 
0 0 0 0 0 0 0 0 0 
0 0 0 0 0 0 0 0 0 
0 0 0 0 0 0 0 0 0 
0 0 0 0 0 0 0 0 0 
0 0 0 0 0 0 0 0 0 
0 0 0 0 0 0 0 0 0 
0 0 0 0 0 0 0 0 0 
0 0 0 0 0 0 0 0 0 
0 0 0 0 0 0 0 0 0 
0 0 0 0 0 0 0 0 0 
0 0 0 0 0 0 0 0 0 
0 0 0 0 0 0 0 0 0 
0 0 0 0 0 0 0 0 0 
0 0 0 0 0 0 0 0 0 
0 0 0 0 0 0 0 0 0 
0 0 0 0 0 0 0 0 0 
0 0 0 0 0 0 0 0 0 
0 0 0 0 0 0 0 0 0 
0 0 0 0 0 0 0 0 0 
0 0 0 0 0 0 0 0 0 
0 0 0 0 0 0 0 0 0 
0 0 0 0 0 0 0 0 0 
0 0 0 0 0 0 0 0 0 
0 0 0 0 0 0 0 0 0 
0 0 0 0 0 0 0 0 0 
0 0 0 0 0 0 0 0 0 
0 0 0 0 0 0 0 0 0 
0 0 0 0 0 0 0 0 0 
0 0 0 0 0 0 0 0 0 
0 0 0 0 0 0 0 0 0 
0 0 0 0 0 0 0 0 0 
0 0 0 0 0 0 0 0 0 
0 0 0 0 0 0 0 0 0 
0 0 0 0 0 0 0 0 0 
0 0 0 0 0 0 0 0 0 
0 0 0 0 0 0 0 0 0 
0 0 0 
v 3 844 double
-0.998847 -0.14228 -0.433233 -0.875202 -0.0119648 -0.411319 -0.964282 -0.208926 -1.79606 
-1.18535 0.015645 -1.88816 -1.0399 0.0239732 -1.86618 -0.920937 -0.15804 -1.79272 
-1.20781 -0.010902 -1.79531 -1.01095 -0.0543533 -1.78179 -1.185 0.181286 -1.79206 
-1.10135 0.05549 -1.75499 -1.22956 0.218808 -1.78321 -1.09174 0.107324 -1.74943 
-0.931525 -0.0507589 -1.71023 -1.13028 0.0706817 -1.7492 -1.05424 0.0128972 -1.71552 
-1.0581 -0.260259 -1.68087 -1.0994 0.0609424 -1.72458 -0.998607 -0.103271 -1.67611 
-1.07806 0.0159724 -1.67963 -0.957441 0.00412971 -1.68855 -0.981793 -0.03774 -1.69278 
-1.19731 -0.0137659 -1.70918 -0.955503 -0.0809711 -1.67018 -0.933584 0.0654867 -1.65969 
-1.02124 -0.114491 -1.62597 -0.918825 -0.0745457 -1.65039 -0.903137 -0.0626823 -1.63893 
-1.09636 -0.00644754 -1.6198 -1.02462 0.0728468 -1.59144 -0.917667 -0.0825723 -1.61798 
-1.1057 -0.0822859 -1.63607 -1.13785 -0.0769281 -1.60799 -1.10061 -0.0949063 -1.58368 
-1.25622 -0.111964 -1.62587 -0.927815 -0.0557572 -1.56893 -1.12261 0.112501 -1.57313 
-1.20211 0.11334 -1.56492 -0.897172 0.0806651 -1.53269 -1.09055 -0.10352 -1.48427 
-1.00141 -0.0479294 -1.53492 -0.937067 0.00432739 -1.46419 -0.918801 0.0548237 -1.45982 
-0.760905 0.0124987 -1.50197 -0.990953 0.0356527 -1.47953 -0.865269 0.0872996 -1.4625 
-1.07261 0.105866 -1.47466 -0.935529 -0.0108325 -1.45078 -0.954853 0.0254883 -1.46966 
-0.9209 0.0381036 -1.42492 -1.33799 0.0333986 -1.57675 -0.76392 0.0590105 -1.40791 
-0.925343 0.0662725 -1.41312 -0.85201 0.0159211 -1.40402 -1.13862 -0.0137652 -1.44935 
-1.02912 -0.0472918 -1.41933 -0.957283 0.00957379 -1.40752 -0.96573 -0.0302623 -1.38796 
-1.2095 0.0876381 -1.48065 -0.97751 0.0643312 -1.37425 -0.935655 -0.0389307 -1.40337 
-1.12071 0.123413 -1.4268 -1.12827 0.0575809 -1.35132 -0.97657 0.060896 -1.39768 
-0.849407 -0.00249987 -1.37739 -1.06094 -0.0753973 -1.34375 -0.901075 -0.0182385 -1.36847 
-1.21787 -0.0518661 -1.42038 -0.934124 -0.0763373 -1.33412 -1.03471 -0.0487233 -1.36403 
-1.06876 -0.0317377 -1.36398 -1.04059 -0.0404223 -1.40448 -0.99625 0.0594318 -1.33729 
-0.968472 -0.0763169 -1.31398 -0.854114 0.0622507 -1.32413 -0.662324 -0.0890583 -1.40419 
-1.13952 -0.0299208 -1.3736 -0.937475 0.00207854 -1.41406 -1.13238 0.0979883 -1.27242 
-1.02909 -0.0378351 -1.26904 -0.819169 0.0463987 -1.2661 -1.15658 -0.0380869 -1.31852 
-1.08619 -0.00364078 -1.26775 -0.851679 0.0719661 -1.2528 -0.843059 0.0562793 -1.23169 
-1.15438 -0.0265574 -1.24291 -0.998687 0.0478707 -1.257 -0.905419 -0.00201857 -1.51582 
-1.13236 0.123357 -1.29984 -1.22148 -0.159503 -1.37991 -1.13637 -0.0599097 -1.23493 
-0.964021 0.000529939 -1.19899 -0.942141 -0.0142409 -1.23212 -0.815334 0.0221386 -1.23038 
-1.16801 -0.120018 -1.22586 -1.00077 -0.0351216 -1.22112 -1.24978 -0.162412 -1.26925 
-1.16109 0.0929289 -1.20048 -0.944002 -0.00261316 -1.19182 -0.815737 0.027157 -1.17697 
-1.10036 0.0211727 -1.14992 -1.1395 0.122618 -1.17337 -1.0895 0.0920915 -1.19832 
-0.897555 -0.0365125 -1.13251 -1.11361 0.013639 -1.13484 -0.828483 -0.171817 -1.19679 
-1.17575 -0.099752 -1.1911 -0.69999 -0.0786664 -1.09357 -1.0939 0.0603272 -1.09738 
-1.10431 0.0400387 -1.11754 -1.21554 -0.15841 -1.089 -1.14008 0.0783112 -0.973325 
-0.95652 -0.0325731 -1.10025 -0.96795 0.0281804 -1.10044 -1.02054 -0.000885128 -1.0378 
-1.09948 0.050905 -0.998527 -1.11442 -0.0942779 -1.08955 -1.16571 -0.288707 -1.16557 
-1.04336 -0.0159088 -0.992773 -1.07785 0.00966422 -0.997084 -1.02319 -0.00675124 -1.00213 
-1.0012 -0.00625908 -1.05121 -1.03023 -0.0325939 -1.02647 -1.00241 -0.0354454 -1.01914 
-1.11682 0.0692231 -1.05595 -1.05493 -0.0341769 -0.976977 -1.08108 0.0146906 -0.969972 
-0.970163 -0.0787416 -0.946725 -1.09945 0.0804293 -0.910285 -1.15066 0.15227 -0.901985 
-0.927618 -0.0602206 -0.929747 -0.893744 0.057118 -0.878458 -1.09474 0.0645417 -0.875713 
-1.07604 0.0646384 -0.909703 -0.932349 -0.0459313 -0.91917 -1.04894 0.0807352 -0.863226 
-1.17184 0.130419 -1.11336 -1.26359 0.0641379 -0.944485 -1.17388 0.319776 -1.00938 
-1.04671 0.136552 -0.899078 -0.978574 0.0524771 -0.840077 -1.07773 -0.0167849 -0.841734 
-1.05677 -0.0150435 -0.814845 -1.1 -0.0339889 -1.05674 -1.12546 0.0102713 -0.774488 
-1.13767 0.00659103 -0.801525 -0.931863 0.0771087 -0.750332 -0.896679 0.0432258 -0.693157 
-1.03708 -0.0783032 -0.768921 -1.08971 -0.0446352 -0.702879 -1.10793 -0.0269179 -0.788984 
-1.07203 -0.0363971 -0.844139 -1.08304 -0.0300217 -0.812358 -0.984536 -0.106928 -0.701725 
-1.08936 -0.0532732 -0.777201 -1.05888 -0.0450864 -0.778909 -1.28902 -0.0814642 -0.799766 
-1.13144 -0.031255 -0.807491 -0.973977 -0.0620074 -0.639832 -0.976038 -0.00339729 -0.688231 
-0.968014 -0.0189975 -0.672204 -0.935365 -0.0473048 -0.608531 -0.964239 0.0279976 -0.645362 
-0.933466 -0.0884208 -0.621476 -1.10426 -0.102396 -0.677972 -1.10887 -0.0363477 -0.736051 
-0.938959 0.00363326 -0.679284 -1.1835 0.199189 -0.748003 -0.987113 -0.0149954 -0.633273 
-1.007 -0.035907 -0.702167 -1.08427 0.0145501 -0.497244 -0.967004 0.0246542 -0.61567 
-0.956478 0.00383404 -0.574106 -1.31063 -0.0663258 -0.749087 -1.06749 -0.0186179 -0.594147 
-0.98199 -0.0516308 -0.628047 -1.03729 0.0749268 -0.609612 -1.18905 -0.0810139 -0.631256 
-1.02291 -0.0295014 -0.645389 -1.04286 0.0226398 -0.4341 -0.88998 0.0129923 -0.469371 
-1.20047 -0.123022 -0.639103 -1.06557 0.132866 -0.598769 -1.10821 -0.0690081 -0.511051 
-0.948447 0.0647257 -0.395689 -0.848479 -0.00715717 -0.510746 -1.19872 0.129853 -0.700521 
-1.12781 -0.0550938 -0.483771 -1.09871 -0.0888448 -0.475956 -1.1027 -0.0372972 -0.468549 
-0.979179 0.0398481 -0.390375 -1.11438 -0.103562 -0.460543 -0.938997 -0.026732 -0.371868 
-0.823688 0.0311502 -0.34991 -0.905018 0.0378345 -0.384642 -0.911791 0.0221819 -0.384376 
-1.18338 -0.395012 -0.570519 -1.02849 0.0273406 -0.423721 -1.09089 -0.646049 -0.675528 
-1.3896 0.106067 -0.703875 -1.18602 0.205046 -0.525963 -1.06292 0.0807527 -0.451097 
-1.05631 0.0220806 -0.446186 -0.920977 0.0221966 -0.388137 -0.902063 -0.045247 -0.383206 
-0.854528 0.109569 -0.353732 -1.03568 0.152754 -0.461134 -1.01682 0.0816937 -0.440044 
-1.02075 0.105481 -0.434521 -1.07756 -0.0724243 -0.458877 -1.08765 -0.0804865 -0.456937 
-1.04485 -0.0237677 -0.442563 -0.951301 0.03475 -0.390389 -0.924611 -0.091779 -0.396719 
-0.874956 -0.0269768 -0.357133 -1.08609 -0.121619 -0.467484 -1.15309 -0.279951 -0.547259 
-1.00676 0.0668283 -0.43234 -0.935547 0.0247269 -0.396312 -0.995755 0.0194125 -0.420562 
-0.961155 0.0648102 -0.411545 -0.842871 -0.0419876 -0.355156 -1.05818 -0.0647854 -0.449262 
-0.838668 -0.0837863 -0.663014 -1.03619 -0.0687269 -0.431645 -1.01755 -0.10426 -0.453656 
-0.813664 -0.0163685 -0.349106 -0.994899 0.0428075 -0.434046 -0.930578 0.0284086 -0.375261 
-0.883226 0.0581089 -0.366029 -0.935294 -0.0473304 -0.386947 -1.02415 0.0916819 -0.508329 
-0.906674 0.0112325 -0.38244 -0.851489 0.0516141 -0.362602 -0.995428 0.0605948 -0.421278 
-0.945034 0.078375 -0.404216 -0.975936 -0.0474953 -0.40709 -0.859899 -0.00759107 -0.427076 
-0.958389 0.0804004 -0.405451 -0.71307 -0.0874802 -0.29893 -0.773626 -0.0271426 -0.4118 
-0.83406 -0.0107946 -0.353641 -0.854332 0.0253867 -0.356535 -0.891452 0.0906841 -0.363635 
-0.980251 0.0664985 -0.416994 -0.946929 0.039621 -0.363823 -0.898167 -0.0136646 -0.367368 
-0.895485 0.0289291 -0.358598 -1.04683 0.630242 -0.880827 -0.973942 -0.0292105 -0.396147 
-0.830941 -0.165258 -0.381045 -0.94453 -0.0160231 -0.395616 -0.950687 0.0212101 -0.379746 
-1.33894 0.156295 -0.429694 -0.834158 0.0158276 -0.348407 -0.824848 0.085627 -0.350863 
-0.902088 0.0782627 -0.376535 -0.844945 -0.0129591 -0.353963 -0.952138 -0.0294512 -0.406762 
-1.16636 -0.0720814 -0.496293 -0.877985 0.022669 -0.383391 -0.855134 0.0169226 -0.363377 
-0.928694 -0.0528301 -0.390257 -1.05588 0.00940497 -0.436918 -1.1064 -0.00752083 -0.445511 
-1.02771 0.0075998 -0.446551 -0.842039 -0.0450004 -0.364704 -0.837281 -0.029656 -0.322789 
-0.835724 -0.0489105 -0.368341 -0.859963 -0.0801656 -0.396922 -0.919859 0.0126872 -0.37582 
-0.855663 0.0639919 -0.365892 -0.984748 0.137935 -0.735547 -0.91608 -0.0560142 -0.38549 
-0.945942 -0.0159391 -0.394821 -0.814885 -0.102261 -0.358769 -0.525992 -0.0409502 -0.211133 
-0.763906 -0.0440926 -0.388969 -0.785378 0.0389188 -0.369061 -1.04702 -0.0473057 -0.374694 
-1.12555 0.11765 -0.357598 -0.956302 -0.0823917 -0.44485 -1.03117 -0.121107 -0.428398 
-0.673922 0.0252553 -0.280271 -0.831074 -0.0469477 -0.360194 -0.855952 0.0520726 -0.348519 
-1.23516 0.101671 -0.388278 -1.09691 0.0614442 -0.464793 -0.705304 -0.00280409 -0.30968 
-0.794317 -0.0816791 -0.331568 -0.930671 0.0512039 -0.391225 -0.956544 0.0642719 -0.438024 
-0.966622 0.045309 -0.40075 -0.588625 -0.086828 -0.246483 -0.664484 -0.0851759 -0.38443 
-0.80372 -0.0101116 -0.635745 -0.690699 -0.00800142 -0.292531 -0.648151 0.0293622 -0.242507 
-0.699469 -0.00420793 -0.346684 -0.843631 0.0318644 -0.355394 -0.946307 0.0806564 -0.370864 
-1.13668 -0.151371 -0.517445 -1.01156 -0.00459061 -0.401099 -0.966725 0.00213735 -0.410289 
-0.913346 -0.0406803 -0.361661 -0.760922 0.00208043 -0.318414 -0.929667 0.0473736 -0.402093 
-0.758296 0.0420082 -0.328035 -0.821892 0.0673181 -0.346747 -0.704134 -0.0555714 -0.294027 