# vtk DataFile Version 4.0
Generated by LIGGGHTS
ASCII
DATASET POLYDATA
POINTS 695 float
-0.202603 -0.0340124 -0.187 -0.481716 0.00263033 -0.378773 -0.204497 0.000151909 -0.192191 
-0.487638 0.0301072 -0.374983 -0.470193 0.0261155 -0.360547 -0.450777 -0.000759239 -0.356518 
-0.464577 0.032374 -0.358164 -0.473537 0.0283932 -0.35668 -0.451347 0.0198662 -0.344363 
-0.452429 0.0145485 -0.334578 -0.43455 -0.0354738 -0.330475 -0.447623 -0.0253951 -0.324744 
-0.431929 -0.0105587 -0.321672 -0.429875 0.0230485 -0.320105 -0.425651 -0.015844 -0.319987 
-0.4147 0.0134707 -0.317 -0.418027 -0.0270528 -0.314203 -0.426432 0.0212501 -0.313596 
-0.416318 0.00765666 -0.308467 -0.421196 0.0139342 -0.312111 -0.410545 -0.00588057 -0.306485 
-0.409681 -0.00665455 -0.301825 -0.417538 -0.0419508 -0.294777 -0.38804 -0.00445471 -0.298441 
-0.399329 0.0030878 -0.294426 -0.395937 0.0120253 -0.295148 -0.40665 0.0266276 -0.293981 
-0.408588 0.0327678 -0.294964 -0.399937 0.0147631 -0.290866 -0.40921 0.0532406 -0.290609 
-0.393769 -0.013488 -0.289034 -0.392022 0.000187962 -0.28745 -0.396467 -0.00291184 -0.286264 
-0.387475 0.0119212 -0.283469 -0.3863 -0.0269492 -0.278962 -0.38364 0.00290186 -0.27952 
-0.379176 0.00161016 -0.275866 -0.386067 0.00928879 -0.277906 -0.38034 0.0220465 -0.274822 
-0.369509 -0.0021916 -0.270491 -0.365794 0.003012 -0.268323 -0.371266 -0.0116994 -0.265953 
-0.361005 -0.00986531 -0.264837 -0.363449 0.00318495 -0.2639 -0.367088 -0.0206389 -0.26416 
-0.35413 -0.00998406 -0.261261 -0.359833 0.000100381 -0.263015 -0.359387 0.00920751 -0.26211 
-0.398905 -0.0531446 -0.26157 -0.354212 -0.0065553 -0.257869 -0.352527 0.00272131 -0.256891 
-0.363013 0.0231496 -0.259896 -0.35202 -0.0128381 -0.253972 -0.349123 -0.0095188 -0.254691 
-0.341238 0.00179235 -0.252327 -0.347084 0.0194243 -0.252529 -0.356401 0.023206 -0.25449 
-0.363559 0.0399002 -0.253627 -0.350586 -0.0251462 -0.250968 -0.342398 -0.0155644 -0.250146 
-0.353809 -0.0106984 -0.250811 -0.34047 -0.0121556 -0.249773 -0.335942 -0.000682282 -0.24864 
-0.340531 0.00504665 -0.250641 -0.342819 -0.0255024 -0.246799 -0.336582 -0.0120244 -0.246606 
-0.336039 -0.0081273 -0.247813 -0.332225 -0.00152439 -0.246421 -0.331519 0.0021543 -0.246192 
-0.328426 0.00212513 -0.244687 -0.331183 0.0113792 -0.24539 -0.33662 0.0241788 -0.245644 
-0.327895 -0.0118416 -0.243625 -0.339351 0.0318947 -0.242813 -0.317091 -0.0132725 -0.238842 
-0.313348 -0.0101454 -0.237107 -0.320528 0.00973976 -0.239597 -0.316722 0.00794346 -0.239193 
-0.318636 0.0136601 -0.239559 -0.312068 -0.0149658 -0.235348 -0.311072 -0.00754581 -0.237041 
-0.307743 -0.00516704 -0.234638 -0.32209 -0.0440128 -0.231474 -0.298406 -0.0124013 -0.2301 
-0.303571 -0.0101817 -0.232411 -0.297626 -0.00851338 -0.231285 -0.293877 -0.0069424 -0.229812 
-0.296681 -0.00256023 -0.230062 -0.297144 0.00668067 -0.231021 -0.312008 0.0252046 -0.233441 
-0.301852 -0.0267691 -0.229841 -0.30041 -0.022271 -0.229165 -0.290491 -0.0204796 -0.226642 
-0.292139 -0.0178821 -0.227831 -0.290154 -0.0156999 -0.227334 -0.294171 -0.0106544 -0.229598 
-0.286018 -0.00506716 -0.226561 -0.29309 0.000441894 -0.228301 -0.294371 0.00874534 -0.229721 
-0.298218 0.0120711 -0.230047 -0.296084 0.0212158 -0.228672 -0.304575 -0.0402248 -0.226371 
-0.301168 -0.0348968 -0.225891 -0.288667 -0.0259633 -0.224736 -0.286763 -0.0170144 -0.225739 
-0.281529 -0.00972704 -0.224382 -0.278433 -0.00943008 -0.223107 -0.282128 0.00235698 -0.224965 
-0.286087 0.00589899 -0.225321 -0.281683 0.00980336 -0.224317 -0.279941 0.007243 -0.223509 
-0.28373 0.0127373 -0.224995 -0.280639 0.0136322 -0.223629 -0.283932 0.0161767 -0.22342 
-0.290439 0.0273209 -0.225127 -0.297928 0.0311339 -0.225885 -0.29529 0.0353985 -0.223903 
-0.304776 -0.0494045 -0.221794 -0.280492 -0.0256188 -0.22147 -0.280621 -0.0197709 -0.222657 
-0.270527 -0.0173144 -0.218918 -0.276837 -0.00979201 -0.219455 -0.272613 -0.0132706 -0.220258 
-0.277074 0.00808445 -0.222512 -0.271263 0.00934675 -0.220031 -0.274749 0.0134388 -0.221125 
-0.278478 0.0187582 -0.221767 -0.266106 -0.018103 -0.216936 -0.26955 -0.01611 -0.216352 
-0.268082 -0.014065 -0.218254 -0.272722 -0.00742914 -0.219639 -0.26235 -0.00549557 -0.216562 
-0.266396 0.00142885 -0.218374 -0.265187 0.00547746 -0.217668 -0.272081 -0.0341593 -0.215339 
-0.270329 -0.0305227 -0.214423 -0.262489 -0.0264825 -0.213684 -0.263114 -0.0199505 -0.215172 
-0.259858 -0.0183139 -0.212728 -0.259793 -0.00955366 -0.215294 -0.259796 0.00393678 -0.214375 
-0.254285 0.00268809 -0.213195 -0.254082 0.0117597 -0.212686 -0.267965 0.029422 -0.215156 
-0.264218 -0.037228 -0.211368 -0.27956 -0.0214405 -0.211092 -0.244513 0.00801807 -0.20885 
-0.24948 0.0146394 -0.209227 -0.27228 0.0467032 -0.209519 -0.251081 -0.036818 -0.206138 
-0.240054 -0.0124672 -0.206637 -0.238536 -0.00594454 -0.205362 -0.243041 -0.00272828 -0.207466 
-0.242104 0.0111253 -0.206621 -0.241558 0.0178312 -0.205438 -0.2456 0.0216291 -0.206569 
-0.242112 0.0279347 -0.204883 -0.25459 0.0405634 -0.205073 -0.278535 0.0557841 -0.207907 
-0.233057 -0.0124861 -0.203602 -0.233975 -0.00466353 -0.203506 -0.226565 -0.00379804 -0.201581 
-0.228171 0.00311209 -0.201048 -0.231076 0.00793614 -0.202147 -0.240737 -0.0398928 -0.199699 
-0.231546 -0.0275993 -0.200525 -0.241014 -0.0181389 -0.201658 -0.223033 -0.013389 -0.199272 
-0.231234 -0.00885045 -0.201442 -0.224299 -0.0062772 -0.199351 -0.228927 -0.000790606 -0.2018 
-0.235325 0.00420473 -0.202831 -0.220897 0.000789218 -0.198028 -0.224361 0.00521959 -0.200463 
-0.223165 0.011461 -0.19963 -0.22621 0.0148803 -0.200488 -0.228421 0.0237477 -0.200204 
-0.22243 -0.0160408 -0.197737 -0.214909 -0.0150386 -0.195708 -0.216155 -0.0110359 -0.196607 
-0.213679 -0.00373196 -0.196103 -0.21387 0.00108755 -0.196129 -0.213944 0.00649695 -0.19501 
-0.246772 0.0149708 -0.196908 -0.21582 0.0252586 -0.194562 -0.221986 -0.0424009 -0.191096 
-0.209046 -0.00973901 -0.192653 -0.231846 -0.00339614 -0.194385 -0.207442 -0.00501791 -0.192371 
-0.208592 0.000195636 -0.192814 -0.20753 0.00515355 -0.192339 -0.245371 0.00889233 -0.194337 
-0.205042 0.00852176 -0.192247 -0.21291 0.0116054 -0.193463 -0.213363 0.0172384 -0.193705 
-0.236112 0.0280941 -0.194872 -0.241729 0.0551321 -0.193218 -0.22594 0.0550984 -0.188319 
-0.206744 -0.0424245 -0.185044 -0.215571 0.050222 -0.18662 -0.232576 0.0627411 -0.18662 
-0.214396 0.0605666 -0.180968 -0.202632 0.00908069 -0.190541 -0.202627 -0.0030721 -0.190252 
-0.0590327 0.0185133 -0.128837 -0.199765 0.00577329 -0.190188 -0.195956 -0.00924589 -0.18836 
-0.198423 -0.00693694 -0.189589 -0.0491862 0.00230516 -0.125596 -0.195602 0.00545641 -0.188439 
-0.0583906 -0.0162637 -0.126946 -0.0622651 -0.0279235 -0.12746 -0.195614 -0.030931 -0.183775 
-0.191132 -0.0145416 -0.185719 -0.189038 -0.0107602 -0.185305 -0.187877 -0.00784168 -0.185069 
-0.19095 -0.00495123 -0.185345 -0.188673 -0.000518033 -0.185534 -0.199625 0.00883067 -0.186424 
-0.185469 0.0073784 -0.184019 -0.192214 0.0152803 -0.186156 -0.19432 0.0189762 -0.186676 
-0.193328 0.0248598 -0.185185 -0.198298 -0.0411416 -0.18314 -0.183549 -0.0229782 -0.180499 
-0.179541 -0.0130298 -0.180028 -0.178809 -0.00418771 -0.181263 -0.187315 0.00260013 -0.183338 
-0.180122 0.00585742 -0.181893 -0.183611 0.00722213 -0.18161 -0.181093 0.00881563 -0.182052 
-0.187649 0.0119337 -0.182107 -0.185747 0.0277136 -0.181456 -0.186983 0.0367881 -0.179926 
-0.196726 0.0383286 -0.183426 -0.177721 -0.0209262 -0.179429 -0.172633 -0.0159641 -0.176888 
-0.168756 -0.0140555 -0.17652 -0.173519 -0.0107471 -0.178838 -0.168114 -0.0023194 -0.176861 
-0.171831 0.00109835 -0.178439 -0.173831 0.00977161 -0.178884 -0.177282 0.012787 -0.178932 
-0.177094 0.0196566 -0.17942 -0.173734 0.0194451 -0.176951 -0.181964 0.0328616 -0.178821 
-0.180329 0.03592 -0.177478 -0.183969 -0.051849 -0.173347 -0.165959 -0.016577 -0.17513 
-0.177965 -0.0123945 -0.175314 -0.166728 -0.0119308 -0.175834 -0.163701 -0.0132786 -0.173247 
-0.162181 -0.0096284 -0.174123 -0.164193 -0.00396314 -0.175212 -0.161385 -0.00266798 -0.173993 
-0.167321 0.00182952 -0.17549 -0.16112 0.0027021 -0.172778 -0.179468 0.0247164 -0.177048 
-0.168667 0.0236838 -0.17347 -0.167224 0.0283156 -0.173608 -0.158375 -0.022361 -0.171156 
-0.15574 -0.0221564 -0.169142 -0.160791 -0.0177834 -0.170685 -0.169479 -0.0145336 -0.170229 
-0.159197 -0.0154988 -0.172386 -0.153878 -0.0151294 -0.170173 -0.160402 -0.0123972 -0.169246 
-0.152221 -0.0124856 -0.169753 -0.158224 -0.00614847 -0.171588 -0.171094 0.00307203 -0.173145 
-0.15594 0.00101687 -0.171698 -0.157974 0.012272 -0.172091 -0.179523 0.0172624 -0.171421 
-0.155789 0.0148038 -0.169387 -0.172627 0.017945 -0.170589 -0.19125 0.0262614 -0.170652 
-0.163735 0.0320336 -0.171437 -0.165068 0.0363613 -0.171039 -0.156323 -0.0352088 -0.167734 
-0.151965 -0.0236606 -0.16826 -0.145479 -0.0183732 -0.166303 -0.147434 -0.013822 -0.167599 
-0.15025 -0.00739065 -0.168105 -0.14485 -0.00686988 -0.166971 -0.147393 -0.00391462 -0.168174 
-0.148287 0.00186857 -0.168515 -0.145186 0.00133515 -0.166064 -0.147134 0.00525225 -0.167922 
-0.148915 0.00813543 -0.168623 -0.149897 0.0110295 -0.168814 -0.146045 0.0109475 -0.166165 
-0.146092 0.0159635 -0.165614 -0.156452 0.0255691 -0.168568 -0.151909 0.0290264 -0.167153 
-0.146343 -0.0319239 -0.164368 -0.140081 -0.0250034 -0.163064 -0.140496 -0.018419 -0.16311 
-0.14406 -0.0144425 -0.165005 -0.155406 -0.00614854 -0.163271 -0.137435 -0.00476333 -0.16391 
-0.141064 -0.00109376 -0.16298 -0.134691 -0.00298806 -0.16279 -0.14194 0.00778646 -0.164517 
-0.137474 0.00892923 -0.16369 -0.140557 0.0116184 -0.164775 -0.143179 0.0206886 -0.163888 
-0.164403 0.0337138 -0.16571 -0.144157 -0.0385434 -0.161833 -0.141148 -0.0324308 -0.16095 
-0.133102 -0.026197 -0.159754 -0.126952 -0.0147991 -0.158536 -0.129959 -0.0115462 -0.159331 
-0.135048 -0.010215 -0.161604 -0.130302 -0.00224679 -0.159888 -0.126949 0.00255423 -0.159584 
-0.132853 0.00621125 -0.16079 -0.130644 0.0193863 -0.159816 -0.130725 0.025262 -0.159017 
-0.13963 0.0292027 -0.162008 -0.125286 -0.025119 -0.156482 -0.122073 -0.020651 -0.156132 
[...]
POINT_DATA 695
FIELD FieldData 7
id 1 695 int
287 30 155 31 3 19 68 26 32 
27 2 108 7 1 99 22 33 5 
60 21 6 23 58 142 13 36 28 
11 41 38 10 57 92 8 79 40 
101 130 48 54 42 4 63 14 67 
53 46 44 126 49 29 59 88 83 
122 43 93 75 76 20 162 62 134 
45 104 15 50 100 87 85 148 72 
18 114 132 181 51 70 71 116 69 
17 163 166 192 84 35 64 158 177 
61 52 74 109 12 47 156 77 174 
154 37 147 39 120 94 96 111 145 
65 73 55 133 95 82 233 91 146 
81 112 245 125 167 138 25 150 118 
98 187 175 200 188 182 136 157 137 
176 86 110 89 196 244 143 274 222 
231 103 257 66 139 159 186 78 90 
227 105 80 198 140 124 144 128 209 
153 127 268 232 203 224 204 228 246 
234 202 121 135 97 113 171 194 170 
123 185 141 270 161 165 191 281 117 
243 164 304 259 178 215 327 216 265 
230 238 201 183 262 102 431 239 218 
211 445 180 434 464 129 119 219 252 
152 302 277 260 131 206 271 290 205 
214 149 282 314 309 220 151 278 258 
199 275 189 251 208 172 236 289 279 
288 318 223 210 347 212 254 250 115 
106 284 207 190 307 342 184 299 286 
315 337 295 221 249 317 169 193 272 
308 160 300 266 293 292 311 325 320 
312 313 225 217 235 168 345 240 333 
310 197 269 267 256 323 107 365 179 
229 372 247 379 285 305 322 261 242 
301 348 355 413 321 241 253 331 226 
280 352 213 324 373 237 381 346 358 
316 328 374 273 248 335 297 329 349 
291 380 389 264 173 370 392 332 319 
255 303 371 344 338 376 326 330 378 
283 334 294 350 405 336 393 391 359 
306 296 394 400 341 395 384 354 403 
276 388 367 415 339 298 362 351 396 
409 402 385 386 382 375 414 369 404 
398 441 432 377 343 412 364 426 340 
446 407 411 383 410 356 406 360 452 
437 425 408 430 363 428 387 397 479 
419 480 478 417 401 418 399 450 357 
427 390 421 353 463 477 422 460 368 
424 453 442 469 429 443 490 435 416 
500 474 448 476 475 690 433 700 361 
699 513 482 472 692 366 695 696 495 
689 449 195 486 535 532 489 457 455 
493 504 514 487 440 517 447 423 494 
524 492 420 527 444 465 436 543 468 
522 541 498 438 439 525 526 506 466 
483 507 503 509 540 499 501 511 458 
523 519 462 470 485 528 518 537 481 
533 534 502 461 459 473 545 550 484 
467 520 542 454 491 497 521 555 531 
551 529 538 505 539 546 553 471 510 
536 496 530 516 549 544 488 512 508 
552 548 547 554 556 515 451 557 263 
565 563 560 567 570 558 559 561 568 
566 456 569 562 564 577 578 583 573 
580 582 572 575 576 574 581 571 579 
593 591 594 596 586 588 589 592 584 
595 585 590 587 602 603 607 608 599 
601 600 604 597 606 609 605 619 621 
598 617 618 614 620 615 622 616 611 
613 610 630 612 628 623 634 625 635 
632 627 629 626 633 624 631 637 645 
644 642 641 648 639 638 647 636 643 
640 655 660 646 658 656 654 650 653 
659 649 651 652 661 657 672 663 667 
674 670 665 671 669 668 673 662 682 
664 680 679 685 666 687 683 676 686 
681 678 684 677 675 693 697 698 688 
694 691 
type 1 695 int
1 1 1 1 1 1 1 1 1 
1 1 1 1 1 1 1 1 1 
1 1 1 1 1 1 1 1 1 
1 1 1 1 1 1 1 1 1 
1 1 1 1 1 1 1 1 1 
1 1 1 1 1 1 1 1 1 
1 1 1 1 1 1 1 1 1 
1 1 1 1 1 1 1 1 1 
1 1 1 1 1 1 1 1 1 
1 1 1 1 1 1 1 1 1 
1 1 1 1 1 1 1 1 1 
1 1 1 1 1 1 1 1 1 
1 1 1 1 1 1 1 1 1 
1 1 1 1 1 1 1 1 1 
1 1 1 1 1 1 1 1 1 
1 1 1 1 1 1 1 1 1 
1 1 1 1 1 1 1 1 1 
1 1 1 1 1 1 1 1 1 
1 1 1 1 1 1 1 1 1 
1 1 1 1 1 1 1 1 1 
1 1 1 1 1 1 1 1 1 
1 1 1 1 1 1 1 1 1 
1 1 1 1 1 1 1 1 1 
1 1 1 1 1 1 1 1 1 
1 1 1 1 1 1 1 1 1 
1 1 1 1 1 1 1 1 1 
1 1 1 1 1 1 1 1 1 
1 1 1 1 1 1 1 1 1 
1 1 1 1 1 1 1 1 1 
1 1 1 1 1 1 1 1 1 
1 1 1 1 1 1 1 1 1 
1 1 1 1 1 1 1 1 1 
1 1 1 1 1 1 1 1 1 
1 1 1 1 1 1 1 1 1 
1 1 1 1 1 1 1 1 1 
1 1 1 1 1 1 1 1 1 
1 1 1 1 1 1 1 1 1 
1 1 1 1 1 1 1 1 1 
1 1 1 1 1 1 1 1 1 
1 1 1 1 1 1 1 1 1 
1 1 1 1 1 1 1 1 1 
1 1 1 1 1 1 1 1 1 
1 1 1 1 1 1 1 1 1 
1 1 1 1 1 1 1 1 1 
1 1 1 1 1 1 1 1 1 
1 1 1 1 1 1 1 1 1 
1 1 1 1 1 1 1 1 1 
1 1 1 1 1 1 1 1 1 
1 1 1 1 1 1 1 1 1 
1 1 1 1 1 1 1 1 1 
1 1 1 1 1 1 1 1 1 
1 1 1 1 1 1 1 1 1 
1 1 1 1 1 1 1 1 1 
1 1 1 1 1 1 1 1 1 
1 1 1 1 1 1 1 1 1 
1 1 1 1 1 1 1 1 1 
1 1 1 1 1 1 1 1 1 
1 1 1 1 1 1 1 1 1 
1 1 1 1 1 1 1 1 1 
1 1 1 1 1 1 1 1 1 
1 1 1 1 1 1 1 1 1 
1 1 1 1 1 1 1 1 1 
1 1 1 1 1 1 1 1 1 
1 1 1 1 1 1 1 1 1 
1 1 1 1 1 1 1 1 1 
1 1 1 1 1 1 1 1 1 
1 1 1 1 1 1 1 1 1 
1 1 1 1 1 1 1 1 1 
1 1 1 1 1 1 1 1 1 
1 1 1 1 1 1 1 1 1 
1 1 1 1 1 1 1 1 1 
1 1 1 1 1 1 1 1 1 
1 1 1 1 1 1 1 1 1 
1 1 1 1 1 1 1 1 1 
1 1 1 1 1 1 1 1 1 
1 1 1 1 1 1 1 1 1 
1 1 1 1 1 1 1 1 1 
1 1 
i 3 695 int
0 0 0 0 0 0 0 0 0 
0 0 0 0 0 0 0 0 0 
0 0 0 0 0 0 0 0 0 
0 0 0 0 0 0 0 0 0 
0 0 0 0 0 0 0 0 0 
0 0 0 0 0 0 0 0 0 
0 0 0 0 0 0 0 0 0 
0 0 0 0 0 0 0 0 0 
0 0 0 0 0 0 0 0 0 
0 0 0 0 0 0 0 0 0 
0 0 0 0 0 0 0 0 0 
0 0 0 0 0 0 0 0 0 
0 0 0 0 0 0 0 0 0 
0 0 0 0 0 0 0 0 0 
0 0 0 0 0 0 0 0 0 
0 0 0 0 0 0 0 0 0 
0 0 0 0 0 0 0 0 0 
0 0 0 0 0 0 0 0 0 
0 0 0 0 0 0 0 0 0 
0 0 0 0 0 0 0 0 0 
0 0 0 0 0 0 0 0 0 
0 0 0 0 0 0 0 0 0 
0 0 0 0 0 0 0 0 0 
0 0 0 0 0 0 0 0 0 
0 0 0 0 0 0 0 0 0 
0 0 0 0 0 0 0 0 0 
0 0 0 0 0 0 0 0 0 
0 0 0 0 0 0 0 0 0 
0 0 0 0 0 0 0 0 0 
0 0 0 0 0 0 0 0 0 
0 0 0 0 0 0 0 0 0 
0 0 0 0 0 0 0 0 0 
0 0 0 0 0 0 0 0 0 
0 0 0 0 0 0 0 0 0 
0 0 0 0 0 0 0 0 0 
0 0 0 0 0 0 0 0 0 
0 0 0 0 0 0 0 0 0 
0 0 0 0 0 0 0 0 0 
0 0 0 0 0 0 0 0 0 
0 0 0 0 0 0 0 0 0 
0 0 0 0 0 0 0 0 0 
0 0 0 0 0 0 0 0 0 
0 0 0 0 0 0 0 0 0 
0 0 0 0 0 0 0 0 0 
0 0 0 0 0 0 0 0 0 
0 0 0 0 0 0 0 0 0 
0 0 0 0 0 0 0 0 0 
0 0 0 0 0 0 0 0 0 
0 0 0 0 0 0 0 0 0 
0 0 0 0 0 0 0 0 0 
0 0 0 0 0 0 0 0 0 
0 0 0 0 0 0 0 0 0 
0 0 0 0 0 0 0 0 0 
0 0 0 0 0 0 0 0 0 
0 0 0 0 0 0 0 0 0 
0 0 0 0 0 0 0 0 0 
0 0 0 0 0 0 0 0 0 
0 0 0 0 0 0 0 0 0 
0 0 0 0 0 0 0 0 0 
0 0 0 0 0 0 0 0 0 
0 0 0 0 0 0 0 0 0 
0 0 0 0 0 0 0 0 0 
0 0 0 0 0 0 0 0 0 
0 0 0 0 0 0 0 0 0 
0 0 0 0 0 0 0 0 0 
0 0 0 0 0 0 0 0 0 
0 0 0 0 0 0 0 0 0 
0 0 0 0 0 0 0 0 0 
0 0 0 0 0 0 0 0 0 
0 0 0 0 0 0 0 0 0 
0 0 0 0 0 0 0 0 0 
0 0 0 0 0 0 0 0 0 
0 0 0 0 0 0 0 0 0 
0 0 0 0 0 0 0 0 0 
0 0 0 0 0 0 0 0 0 
0 0 0 0 0 0 0 0 0 
0 0 0 0 0 0 0 0 0 
0 0 0 0 0 0 0 0 0 
0 0 0 0 0 0 0 0 0 
0 0 0 0 0 0 0 0 0 
0 0 0 0 0 0 0 0 0 
0 0 0 0 0 0 0 0 0 
0 0 0 0 0 0 0 0 0 
0 0 0 0 0 0 0 0 0 
0 0 0 0 0 0 0 0 0 
0 0 0 0 0 0 0 0 0 
0 0 0 0 0 0 0 0 0 
0 0 0 0 0 0 0 0 0 
0 0 0 0 0 0 0 0 0 
0 0 0 0 0 0 0 0 0 
0 0 0 0 0 0 0 0 0 
0 0 0 0 0 0 0 0 0 
0 0 0 0 0 0 0 0 0 
0 0 0 0 0 0 0 0 0 
0 0 0 0 0 0 0 0 0 
0 0 0 0 0 0 0 0 0 
0 0 0 0 0 0 0 0 0 
0 0 0 0 0 0 0 0 0 
0 0 0 0 0 0 0 0 0 
0 0 0 0 0 0 0 0 0 
0 0 0 0 0 0 0 0 0 
0 0 0 0 0 0 0 0 0 
0 0 0 0 0 0 0 0 0 
0 0 0 0 0 0 0 0 0 
0 0 0 0 0 0 0 0 0 
0 0 0 0 0 0 0 0 0 
0 0 0 0 0 0 0 0 0 
0 0 0 0 0 0 0 0 0 
0 0 0 0 0 0 0 0 0 
0 0 0 0 0 0 0 0 0 
0 0 0 0 0 0 0 0 0 
0 0 0 0 0 0 0 0 0 
0 0 0 0 0 0 0 0 0 
0 0 0 0 0 0 0 0 0 
0 0 0 0 0 0 0 0 0 
0 0 0 0 0 0 0 0 0 
0 0 0 0 0 0 0 0 0 
0 0 0 0 0 0 0 0 0 
0 0 0 0 0 0 0 0 0 
0 0 0 0 0 0 0 0 0 
0 0 0 0 0 0 0 0 0 
0 0 0 0 0 0 0 0 0 
0 0 0 0 0 0 0 0 0 
0 0 0 0 0 0 0 0 0 
0 0 0 0 0 0 0 0 0 
0 0 0 0 0 0 0 0 0 
0 0 0 0 0 0 0 0 0 
0 0 0 0 0 0 0 0 0 
0 0 0 0 0 0 0 0 0 
0 0 0 0 0 0 0 0 0 
0 0 0 0 0 0 0 0 0 
0 0 0 0 0 0 0 0 0 
0 0 0 0 0 0 0 0 0 
0 0 0 0 0 0 0 0 0 
0 0 0 0 0 0 0 0 0 
0 0 0 0 0 0 0 0 0 
0 0 0 0 0 0 0 0 0 
0 0 0 0 0 0 0 0 0 
0 0 0 0 0 0 0 0 0 
0 0 0 0 0 0 0 0 0 
0 0 0 0 0 0 0 0 0 
0 0 0 0 0 0 0 0 0 
0 0 0 0 0 0 0 0 0 
0 0 0 0 0 0 0 0 0 
0 0 0 0 0 0 0 0 0 
0 0 0 0 0 0 0 0 0 
0 0 0 0 0 0 0 0 0 
0 0 0 0 0 0 0 0 0 
0 0 0 0 0 0 0 0 0 
0 0 0 0 0 0 0 0 0 
0 0 0 0 0 0 0 0 0 
0 0 0 0 0 0 0 0 0 
0 0 0 0 0 0 0 0 0 
0 0 0 0 0 0 0 0 0 
0 0 0 0 0 0 0 0 0 
0 0 0 0 0 0 0 0 0 
0 0 0 0 0 0 0 0 0 
0 0 0 0 0 0 0 0 0 
0 0 0 0 0 0 0 0 0 
0 0 0 0 0 0 0 0 0 
0 0 0 0 0 0 0 0 0 
0 0 0 0 0 0 0 0 0 
0 0 0 0 0 0 0 0 0 
0 0 0 0 0 0 0 0 0 
0 0 0 0 0 0 0 0 0 
0 0 0 0 0 0 0 0 0 
0 0 0 0 0 0 0 0 0 
0 0 0 0 0 0 0 0 0 
0 0 0 0 0 0 0 0 0 
0 0 0 0 0 0 0 0 0 
0 0 0 0 0 0 0 0 0 
0 0 0 0 0 0 0 0 0 
0 0 0 0 0 0 0 0 0 
0 0 0 0 0 0 0 0 0 
0 0 0 0 0 0 0 0 0 
0 0 0 0 0 0 0 0 0 
0 0 0 0 0 0 0 0 0 
0 0 0 0 0 0 0 0 0 
0 0 0 0 0 0 0 0 0 
0 0 0 0 0 0 0 0 0 
0 0 0 0 0 0 0 0 0 
0 0 0 0 0 0 0 0 0 
0 0 0 0 0 0 0 0 0 
0 0 0 0 0 0 0 0 0 
0 0 0 0 0 0 0 0 0 
0 0 0 0 0 0 0 0 0 
0 0 0 0 0 0 0 0 0 
0 0 0 0 0 0 0 0 0 
0 0 0 0 0 0 0 0 0 
0 0 0 0 0 0 0 0 0 
0 0 0 0 0 0 0 0 0 
0 0 0 0 0 0 0 0 0 
0 0 0 0 0 0 0 0 0 
0 0 0 0 0 0 0 0 0 
0 0 0 0 0 0 0 0 0 
0 0 0 0 0 0 0 0 0 
0 0 0 0 0 0 0 0 0 
0 0 0 0 0 0 0 0 0 
0 0 0 0 0 0 0 0 0 
0 0 0 0 0 0 0 0 0 
0 0 0 0 0 0 0 0 0 
0 0 0 0 0 0 0 0 0 
0 0 0 0 0 0 0 0 0 
0 0 0 0 0 0 0 0 0 
0 0 0 0 0 0 0 0 0 
0 0 0 0 0 0 0 0 0 
0 0 0 0 0 0 0 0 0 
0 0 0 0 0 0 0 0 0 
0 0 0 0 0 0 0 0 0 
0 0 0 0 0 0 0 0 0 
0 0 0 0 0 0 0 0 0 
0 0 0 0 0 0 0 0 0 
0 0 0 0 0 0 0 0 0 
0 0 0 0 0 0 0 0 0 
0 0 0 0 0 0 0 0 0 
0 0 0 0 0 0 0 0 0 
0 0 0 0 0 0 0 0 0 
0 0 0 0 0 0 0 0 0 
0 0 0 0 0 0 0 0 0 
0 0 0 0 0 0 0 0 0 
0 0 0 0 0 0 0 0 0 
0 0 0 0 0 0 0 0 0 
0 0 0 0 0 0 0 0 0 
0 0 0 0 0 0 0 0 0 
0 0 0 0 0 0 0 0 0 
0 0 0 0 0 0 0 0 0 
0 0 0 0 0 0 0 0 0 
0 0 0 0 0 0 0 0 0 
0 0 0 0 0 0 0 0 0 
0 0 0 0 0 0 0 0 0 
0 0 0 0 0 0 0 0 0 
0 0 0 0 0 0 
v 3 695 double
-0.960888 -0.11235 -0.364563 -1.31226 0.152563 -1.73287 -0.765372 -0.000887698 -0.317483 
-1.33504 -0.0723053 -1.74506 -1.35171 0.195162 -1.63241 -1.14656 0.0761887 -1.57644 
-1.2104 -0.111715 -1.67789 -1.34235 -0.114898 -1.65957 -1.29371 0.154395 -1.51783 
-1.37864 0.0410424 -1.56264 -1.12274 0.0154003 -1.46015 -1.34684 0.255768 -1.48558 
-1.28265 -0.0239591 -1.35716 -1.26435 0.0221371 -1.3989 -1.29568 0.280331 -1.46554 
-1.14007 0.0619945 -1.33063 -1.18685 -0.0202596 -1.33169 -1.25753 0.0630385 -1.27841 
-1.17479 0.0230187 -1.22611 -1.27086 -0.0159577 -1.29814 -1.17123 0.0260053 -1.23952 
-1.20375 0.00503665 -1.17809 -1.28551 0.102613 -1.26138 -1.36559 -0.0590547 -1.48001 
-1.21196 0.0390049 -1.13645 -1.08435 0.0642844 -1.12219 -1.2302 0.00574051 -1.16075 
-1.22067 0.0285474 -1.16616 -1.24643 -0.117866 -1.14873 -1.0323 0.152826 -1.106 
-1.116 0.019221 -1.06621 -1.22662 -0.116708 -1.08519 -1.34796 0.269572 -1.12504 
-1.22068 -0.298572 -1.11303 -1.10241 -0.0910185 -0.982478 -1.19979 -0.0555813 -1.01209 
-1.20344 -0.0768672 -0.977401 -1.37075 -0.249623 -1.07359 -1.19319 -0.0892842 -0.984715 
-1.08092 -0.0613343 -0.891062 -1.07951 0.0100131 -0.853861 -1.31844 0.0999611 -0.890078 
-0.973525 -0.054984 -0.808524 -1.20031 -0.116061 -0.850526 -1.27485 0.17461 -0.93838 
-0.950694 -0.0282768 -0.790625 -1.1745 -0.054974 -0.816554 -1.16531 -0.100774 -0.811252 
-1.19839 0.239857 -1.12173 -1.21623 0.0824053 -0.75285 -1.16483 0.0470791 -0.744781 
-1.277 -0.273313 -0.883629 -1.00125 -0.056749 -0.642496 -1.13593 0.0982091 -0.683745 
-0.927985 -0.0893705 -0.628765 -1.14832 -0.0493155 -0.697591 -1.11646 -0.190801 -0.703279 
-1.27791 -0.159827 -0.859956 -1.22816 0.208558 -0.752526 -1.15392 0.253472 -0.675316 
-1.07355 0.0243757 -0.630282 -1.16496 0.313566 -0.676768 -0.897524 -0.017237 -0.510364 
-1.0702 0.0723754 -0.590802 -1.24862 0.224029 -0.708051 -1.16235 0.0278991 -0.582299 
-1.14927 0.0317068 -0.586182 -1.08646 0.00781114 -0.535082 -1.08106 0.0368958 -0.541443 
-1.05461 -0.0269159 -0.507785 -1.12405 -0.115274 -0.560514 -1.0697 -0.178245 -0.600107 
-1.1263 -0.0230756 -0.495463 -1.25689 0.0342867 -0.64551 -1.05185 -0.143529 -0.459552 
-1.03437 0.0399149 -0.398339 -1.13124 0.0311722 -0.474857 -1.1456 -0.0476992 -0.485164 
-1.14636 0.0631016 -0.467191 -1.01506 -0.00436081 -0.414245 -1.10716 0.0111397 -0.464247 
-1.10139 0.0171825 -0.465011 -1.2255 0.338249 -0.604497 -0.992749 0.0579617 -0.423559 
-1.05153 -0.0238638 -0.360912 -0.891265 0.0786296 -0.38348 -0.837117 0.0658267 -0.355281 
-1.02611 0.0519898 -0.431392 -1.12537 0.099143 -0.468026 -1.19096 -0.0413766 -0.504857 
-1.1368 0.073921 -0.471197 -1.03749 -0.032865 -0.401714 -0.938464 0.0496339 -0.401126 
-0.740073 -0.0370007 -0.293318 -0.907487 0.19669 -0.3368 -1.02518 0.0271576 -0.434264 
-0.924431 -0.0138281 -0.389359 -1.0188 0.0772364 -0.476385 -1.09731 0.0892066 -0.457689 
-1.20498 -0.103156 -0.515365 -1.11484 -0.0561799 -0.479247 -1.1027 0.00526696 -0.430463 
-1.04825 0.0274736 -0.406743 -1.19446 0.178419 -0.50566 -0.953788 0.0692056 -0.411256 
-0.967228 0.0667342 -0.414203 -0.867518 0.105635 -0.33326 -0.967838 -0.0508844 -0.411088 
-0.982268 -0.0261522 -0.4158 -0.908141 -0.0191683 -0.376044 -0.994288 -0.120602 -0.447358 
-0.858096 0.0256432 -0.352768 -1.08368 -0.0476467 -0.472361 -0.956161 0.0732679 -0.455071 
-0.784488 -0.0830967 -0.347792 -0.91813 0.00546169 -0.383118 -0.953433 0.170204 -0.338683 
-1.11189 0.3788 -0.614193 -0.83762 -0.021834 -0.33962 -1.24406 0.0297538 -0.524941 
-0.722411 -0.0132506 -0.304916 -0.991359 0.127795 -0.232591 -1.11514 -0.155737 -0.448257 
-0.994075 0.010027 -0.409595 -0.959588 -0.0401947 -0.41489 -1.07348 -0.0395389 -0.469399 
-1.14683 -0.128483 -0.504514 -0.82465 -0.0457433 -0.33399 -0.786183 0.0357626 -0.305344 
-1.06408 -0.129651 -0.43576 -0.955724 0.175348 -0.604519 -1.05804 0.0257426 -0.442567 
-1.02298 -0.0732184 -0.43146 -1.14422 -0.080771 -0.483146 -1.05062 0.124038 -0.459267 
-1.0355 0.15511 -0.406092 -0.890176 0.245562 -0.475406 -1.10259 0.106004 -0.495814 
-1.01149 0.0154798 -0.439833 -0.967528 0.163678 -0.422705 -1.05073 0.163474 -0.443659 
-0.923447 -0.00927004 -0.389843 -1.04512 -0.0665265 -0.451694 -1.15542 -0.054615 -0.479119 
-1.15275 -0.0529618 -0.380744 -0.831998 -0.0824634 -0.468856 -0.853435 0.195657 -0.366599 
-0.985333 -0.0643239 -0.426243 -1.03201 -0.0321757 -0.412534 -1.08294 0.00263341 -0.482896 
-0.895901 0.00664376 -0.397547 -0.910633 -0.00565618 -0.41308 -0.920856 0.0289252 -0.387705 
-0.856397 -0.00349515 -0.361762 -1.02643 0.0088802 -0.423164 -1.05531 -0.043999 -0.442653 
-0.809142 0.0834338 -0.318376 -0.912352 -0.0273056 -0.36907 -1.0363 -0.297166 -0.56309 
-0.798453 -0.11177 -0.322738 -0.899889 -0.0492336 -0.369569 -0.872162 0.096032 -0.370176 
-0.802586 -0.000966825 -0.341947 -0.945093 -0.0406462 -0.394178 -1.11999 -0.144692 -0.449257 
-0.928842 -0.0901439 -0.361519 -0.997842 -0.147229 -0.494618 -0.757148 -0.0273225 -0.321971 
-0.859813 -0.0513145 -0.473054 -0.892909 0.0508875 -0.403784 -1.01554 0.0207805 -0.6107 
-1.21758 0.317365 -0.758882 -0.852854 0.0654957 -0.354237 -0.891319 -0.0085402 -0.370957 
-0.914656 0.0812951 -0.380495 -0.851886 -0.00239414 -0.354595 -0.925339 -0.180076 -0.433046 
-0.942255 -0.0160329 -0.581457 -0.954866 -0.0426477 -0.404218 -0.921515 -0.0260604 -0.379651 
-0.803062 -0.073933 -0.344952 -0.76576 -0.0223725 -0.328257 -0.816444 0.00998412 -0.352724 
-1.08769 0.00294689 -0.575658 -0.870225 -0.0429586 -0.377673 -0.929023 0.0425792 -0.387101 
-0.916768 -0.0315124 -0.397691 -1.15942 0.198165 -0.573043 -0.828195 -0.0627696 -0.347973 
-0.723075 -0.0195852 -0.300994 -0.824908 0.0158781 -0.342896 -1.4231 -0.13074 -0.873182 
-0.780336 -0.0138652 -0.325372 -0.894232 0.0638277 -0.410681 -0.884594 -0.119917 -0.379757 
-1.02611 0.170517 -0.894215 -1.08317 -0.227809 -0.550401 -0.766518 -0.167812 -0.393861 
-0.852666 0.0655049 -0.376484 -1.06725 -0.0450994 -0.463747 -1.03375 -0.355773 -0.601221 
-0.811148 -0.115445 -0.364313 -0.752626 -0.018234 -0.34565 -0.837097 -0.101855 -0.394349 
-0.626017 -0.108991 -0.274319 -0.592619 -0.0504732 -0.251515 -0.803278 -0.0134683 -0.329238 
-0.81253 -0.0908235 -0.34821 -0.415257 -0.162516 -0.174543 -0.895021 0.000522951 -0.372112 
-0.627496 0.148345 -0.397267 -0.576407 -0.0933778 -0.470456 -0.787009 0.094663 -0.343058 
-0.781867 0.2934 -0.357723 -0.68163 -0.0213472 -0.278894 -0.789889 0.0365718 -0.33928 
-0.848446 -0.013898 -0.363631 -0.748518 -0.0906803 -0.329702 -1.25017 0.0617535 -0.628873 
-0.711665 -0.0102392 -0.302288 -0.859477 -0.00583552 -0.368495 -0.844215 0.0146694 -0.347576 
-0.714023 -0.0165746 -0.297662 -1.06637 -0.0308324 -0.428731 -0.888095 -0.0580769 -0.360015 
-0.700044 -0.0774217 -0.279366 -0.738739 0.0248514 -0.309632 -0.90756 -0.0838639 -0.363383 
-0.765561 -0.037985 -0.326898 -0.774189 0.0197337 -0.226205 -0.884186 -0.0932731 -0.383758 
-0.934128 0.0855009 -0.328114 -0.84743 0.0472787 -0.34573 -0.903943 0.116315 -0.333986 
-0.875022 -0.110846 -0.397752 -0.878845 -0.0689102 -0.357519 -0.753244 -0.0519367 -0.297149 
-0.741314 0.0304041 -0.32206 -0.698763 0.0240649 -0.300611 -0.615056 0.0286252 -0.25372 
-0.596523 0.0730649 -0.250508 -0.688385 0.0952838 -0.284654 -0.751901 0.0204512 -0.320332 
-0.849533 0.152198 -0.339069 -0.823945 0.0771009 -0.383676 -1.05069 0.21395 -0.392619 
-0.919766 -0.0512906 -0.396608 -1.11425 -0.00213552 -0.438559 -0.807521 -0.0299967 -0.340451 
-0.694513 -0.066066 -0.283153 -0.731131 0.0246348 -0.308243 -0.747895 -0.0460891 -0.292044 
-0.628135 -0.0715871 -0.255101 -0.665061 0.0176348 -0.288939 -0.717038 -0.0458999 -0.310668 
-0.790651 -0.0777432 -0.34107 -0.663693 0.0222882 -0.332659 -0.982782 0.130554 -0.804391 
-0.811109 0.104786 -0.281654 -0.856063 0.0425829 -0.35269 -0.713355 -0.134701 -0.278375 
-0.696783 -0.016035 -0.250186 -1.14113 0.145033 -0.521889 -1.11278 -0.076165 -0.438092 
-0.703468 -0.0298282 -0.296148 -0.736063 -0.000747352 -0.30404 -0.724779 0.0141732 -0.240535 
-0.742356 0.00690068 -0.308308 -0.780242 0.00701141 -0.334189 -1.14463 0.177285 -0.586478 
-0.794751 0.0287465 -0.32667 -0.666886 0.00726739 -0.261191 -0.939632 0.16724 -0.527202 
-0.703043 0.036501 -0.298107 -1.04962 -0.0645066 -0.247912 -1.05368 0.0855229 -0.17584 
-0.751354 -0.00548023 -0.311206 -0.799567 0.0131087 -0.326891 -0.796031 -0.153819 -0.295622 
-0.712433 -0.0856351 -0.287785 -0.689071 -0.0273827 -0.291592 -0.745769 0.0204122 -0.320693 
-0.730164 -0.000595083 -0.298868 -0.744935 0.0195688 -0.310228 -0.697805 -0.000713989 -0.289628 
-0.674434 0.058203 -0.260967 -0.670393 -0.0246771 -0.247155 -0.64319 0.0729511 -0.276901 
-0.644004 0.0232519 -0.27848 -0.656013 0.020541 -0.26573 -0.616432 0.0264041 -0.250781 
-0.620623 0.02456 -0.250827 -0.803242 0.0548665 -0.314127 -0.740201 -0.081402 -0.315038 
-0.77457 0.328153 -0.401586 -0.730712 -0.108878 -0.281505 -0.636408 0.0359132 -0.266565 
-0.758681 -0.0241219 -0.321833 -1.18726 0.0556993 -0.27659 -0.657338 -0.034495 -0.280181 
-0.629458 -0.0237115 -0.404486 -0.643388 -0.0292919 -0.27956 -0.634296 -0.0565751 -0.281399 
-0.581742 0.0831048 -0.230886 -0.704342 0.00107043 -0.277248 -0.644148 0.0809969 -0.260941 
-0.805306 0.00941371 -0.352919 -0.889884 -0.110101 -0.31824 -0.899807 0.0224717 -0.383757 
-0.947554 0.189495 -0.423965 -0.656422 -0.168753 -0.356474 -0.594587 -0.0591475 -0.262239 
-0.621775 -0.0506615 -0.262337 -0.583059 -0.0318315 -0.240418 -0.645358 -0.0690204 -0.26887 
-0.731843 -0.128921 -0.323841 -0.666967 0.0383195 -0.266033 -0.763975 -0.0636507 -0.319928 
-0.816883 -0.101209 -0.350925 -0.750235 0.128789 -0.452451 -0.566536 0.00944328 -0.239968 
-0.847425 -0.172072 -0.129831 -1.12328 -0.157981 -0.69334 -0.814115 0.0670736 -0.431686 
-0.633118 0.0564737 -0.272009 -0.589253 -0.0597043 -0.242243 -0.551708 -0.0661623 -0.214202 
-0.513231 -0.0222227 -0.218838 -0.570149 -0.191621 -0.441046 -0.499417 0.0135078 -0.20313 
-0.721216 -0.0649113 -0.47713 -0.564134 -0.0370005 -0.242178 -0.647854 -0.00920127 -0.400361 
-0.540228 -0.0644786 -0.231166 -0.721827 0.0923892 -0.29668 -0.777319 0.0975614 -0.321686 
-0.711743 0.0992517 -0.286725 -0.606661 -0.0382178 -0.255384 -0.802849 0.179184 -0.301166 
-0.675884 0.0350195 -0.14646 -0.796382 -0.0607335 -0.335789 -0.777312 -0.0342506 -0.331329 
-0.704809 0.12959 -0.326694 -0.795496 -0.0870506 -0.292507 -0.564632 -0.0236243 -0.237468 
-0.947523 0.0319526 -0.500177 -0.830288 -0.129845 -0.365115 -0.847352 -0.141642 -0.423283 
-0.612895 0.0708874 -0.257645 -0.602542 -0.0394918 -0.220418 -1.09253 -0.275826 -0.465637 
-0.802975 -0.146627 -0.232001 -0.681154 0.0501216 -0.281195 -0.625807 0.0346861 -0.242608 
-0.732224 -0.0475352 -0.295941 -0.779938 -0.0151328 -0.319536 -0.713366 -0.109573 -0.286425 
-0.687347 0.0549313 -0.385411 -0.88823 0.107322 -0.594697 -0.689297 -0.0190259 -0.461179 
-0.671661 0.0933002 -0.673972 -0.586087 0.033106 -0.243492 -0.709321 -0.0473595 -0.294412 
-0.85505 0.326572 -0.333099 -0.874535 -0.0669522 -0.387711 -0.626707 -0.0816256 -0.262702 
-0.704511 -0.0696942 -0.241073 -0.742973 -0.104188 -0.32198 -0.856916 -0.0996778 -0.225683 
-0.615631 0.0806097 -0.146049 -0.806116 -0.0376198 -0.138564 -0.765899 0.086768 -0.446494 
-0.663436 -0.25053 -0.457119 -0.590992 -0.0132497 -0.232865 -0.559423 0.0528469 -0.231649 