# vtk DataFile Version 4.0
Generated by LIGGGHTS
ASCII
DATASET POLYDATA
POINTS 506 float
-0.352842 0.00737279 -0.256373 -0.32191 -0.00670147 -0.241463 -0.296287 -0.0011499 -0.229945 
-0.286049 -0.019736 -0.224929 -0.280567 -0.0117724 -0.223756 -0.296607 -0.0452686 -0.220746 
-0.288154 0.0398671 -0.220003 -0.26953 -0.00340714 -0.218588 -0.268519 -0.0352623 -0.212511 
-0.260418 -0.00363471 -0.215823 -0.275232 0.0407077 -0.213294 -0.245076 -0.00599299 -0.209243 
-0.246251 -0.00213953 -0.209926 -0.247449 0.00646625 -0.210141 -0.258133 0.0247214 -0.211186 
-0.374249 0.0664187 -0.212832 -0.2448 -0.0212576 -0.207341 -0.243199 -0.00845884 -0.208102 
-0.236074 -0.00631194 -0.205337 -0.240556 0.00130498 -0.207428 -0.240409 0.00929689 -0.205994 
-0.246467 0.020991 -0.207019 -0.235955 -0.0131087 -0.204767 -0.231743 -0.00857187 -0.202277 
-0.226779 -0.0025949 -0.201681 -0.24844 0.010007 -0.20403 -0.236905 0.013541 -0.20518 
-0.233027 0.0225732 -0.202311 -0.276166 0.0603733 -0.204115 -0.229737 0.0215135 -0.199999 
-0.249642 -0.0577155 -0.196016 -0.209916 -0.0106735 -0.194026 -0.216756 0.00410848 -0.196244 
-0.216356 0.00991921 -0.195816 -0.219013 0.0155842 -0.197355 -0.22225 0.0275773 -0.195574 
-0.235601 -0.0527342 -0.193311 -0.228497 -0.0488754 -0.192574 -0.206002 0.00490114 -0.192786 
-0.209187 0.0112554 -0.192638 -0.212747 0.0263708 -0.193009 -0.214893 0.0475484 -0.187594 
-0.221946 -0.0710363 -0.175788 -0.205563 -0.0370981 -0.186383 -0.201311 -0.00223045 -0.171109 
-0.200727 0.0161272 -0.188534 -0.197372 -0.00375976 -0.18806 -0.192696 -0.00263926 -0.187177 
-0.196337 0.00195779 -0.18799 -0.199788 0.00444505 -0.190195 -0.0976496 0.08026 -0.125349 
-0.196394 0.0173021 -0.187705 -0.0581745 -0.00257447 -0.127514 -0.198292 -0.0331331 -0.185452 
-0.186503 -0.0060542 -0.184507 -0.199393 0.00055577 -0.184154 -0.186391 0.000131129 -0.184078 
-0.191892 0.00416128 -0.186976 -0.194014 0.0186327 -0.186373 -0.19249 0.0233179 -0.185159 
-0.197392 0.0297884 -0.185858 -0.190141 -0.0193398 -0.183653 -0.186237 -0.0107567 -0.183062 
-0.18327 -0.00649035 -0.182011 -0.191717 0.00265407 -0.183367 -0.178692 0.00164037 -0.180242 
-0.196459 0.0128701 -0.183176 -0.184598 0.0117635 -0.183261 -0.189311 -0.0453145 -0.178041 
-0.188811 -0.0361451 -0.179769 -0.175799 -0.0158635 -0.178178 -0.174152 -0.00906787 -0.179077 
-0.170364 -0.0102972 -0.177528 -0.173584 -0.00609259 -0.179059 -0.170801 -0.0042 -0.176861 
-0.172555 0.00123449 -0.178646 -0.17411 0.00619982 -0.179299 -0.193206 0.0391854 -0.180558 
-0.196663 0.0534754 -0.177823 -0.182801 -0.0426369 -0.175182 -0.177603 -0.0380487 -0.175738 
-0.167489 -0.0120997 -0.176144 -0.16181 -0.0114704 -0.173827 -0.164117 -0.00977961 -0.174914 
-0.17954 -0.00369334 -0.176227 -0.166321 -0.00463449 -0.176091 -0.16293 -0.00499356 -0.173571 
-0.183258 -0.00224247 -0.175126 -0.160192 -0.000435656 -0.173438 -0.165463 -7.15453e-05 -0.174682 
-0.173546 0.00390859 -0.174505 -0.161032 0.00734469 -0.17269 -0.17758 0.0176985 -0.175967 
-0.185662 0.0461336 -0.17628 -0.175793 -0.0417688 -0.172699 -0.158496 -0.0213936 -0.171323 
-0.16279 -0.015791 -0.172726 -0.18069 -0.00897235 -0.173731 -0.158236 -0.00906698 -0.172514 
-0.156498 -0.00332489 -0.17198 -0.153358 0.00686822 -0.17008 -0.156336 0.00781237 -0.171804 
-0.156177 0.0113483 -0.171435 -0.1589 0.0184938 -0.171911 -0.16495 0.0207309 -0.172984 
-0.155487 0.01853 -0.1704 -0.160097 -0.0252127 -0.168684 -0.15332 -0.0215984 -0.16916 
-0.151836 -0.017689 -0.16902 -0.151664 -0.0126693 -0.168431 -0.14745 -0.00690062 -0.168049 
-0.0512478 0.0138724 -0.126044 -0.173681 0.00101481 -0.166232 -0.145001 0.000859971 -0.166023 
-0.156669 0.0149558 -0.168845 -0.146048 0.0155814 -0.166723 -0.142084 -0.024937 -0.162806 
-0.135962 -0.0178778 -0.162256 -0.142961 -0.0158427 -0.165484 -0.139771 -0.0163514 -0.162997 
-0.143318 -0.0101792 -0.164571 -0.137168 -0.00718678 -0.163559 -0.139684 -0.0019748 -0.164953 
-0.139923 0.0018284 -0.163318 -0.142058 0.0102032 -0.165604 -0.139878 0.0122724 -0.164577 
-0.142712 0.0155026 -0.165369 -0.144919 0.0203404 -0.164635 -0.160454 -0.0611371 -0.159935 
-0.135703 -0.0357479 -0.159038 -0.133762 -0.0199138 -0.160717 -0.128975 -0.00810025 -0.159162 
-0.129685 -0.00294903 -0.159316 -0.129292 0.00312661 -0.159402 -0.128106 0.0095302 -0.159652 
-0.12752 0.0133192 -0.159204 -0.13276 0.0189033 -0.16075 -0.14088 0.0233001 -0.161419 
-0.133289 0.0261423 -0.160009 -0.130856 -0.0414066 -0.15549 -0.121577 -0.00462952 -0.156188 
-0.116217 -0.00601449 -0.154971 -0.128891 0.00066559 -0.156059 -0.121462 0.000367378 -0.156005 
-0.127545 0.00540233 -0.155845 -0.121907 0.00408319 -0.157391 -0.119109 0.00609349 -0.156099 
-0.140985 0.0280673 -0.159639 -0.124432 0.0253042 -0.155325 -0.158732 -0.070482 -0.154163 
-0.131204 -0.0533767 -0.151811 -0.140218 -0.0516943 -0.15521 -0.138283 -0.00498021 -0.154607 
-0.111801 -0.0049985 -0.151987 -0.12652 -0.00238088 -0.156715 -0.114462 -0.000278506 -0.154275 
-0.111055 -0.00016417 -0.15284 -0.108532 -0.00181685 -0.151773 -0.121252 0.00528774 -0.152615 
-0.118502 0.00979684 -0.154575 -0.114258 0.0158427 -0.152348 -0.119882 0.020047 -0.15529 
-0.113236 -0.0350903 -0.149859 -0.108161 -0.0286341 -0.148017 -0.113785 -0.0211514 -0.150367 
-0.103482 -0.000878921 -0.14917 -0.101647 0.00240889 -0.148848 -0.117435 0.00596722 -0.153518 
-0.105604 0.00406514 -0.14943 -0.110242 0.0078917 -0.151234 -0.128613 0.0125518 -0.151733 
-0.111299 0.0171467 -0.149097 -0.109411 0.0164287 -0.15135 -0.16844 0.0207889 -0.152188 
-0.111944 0.0241743 -0.151349 -0.115887 0.0370998 -0.150454 -0.141252 0.0656981 -0.150251 
-0.104028 -0.0301439 -0.145349 -0.105202 -0.00708379 -0.148645 -0.110893 -0.00280443 -0.146775 
-0.100383 -0.00673073 -0.146101 -0.114871 -0.00252788 -0.146778 -0.0998457 -0.000685408 -0.14705 
-0.0958601 0.00116746 -0.144663 -0.101325 0.00678171 -0.147585 -0.0965538 0.00750638 -0.14553 
-0.0952502 0.0173833 -0.144191 -0.114187 0.0478795 -0.146708 -0.101569 -0.0330487 -0.14161 
-0.0907185 -0.0246056 -0.142452 -0.090961 -0.0182344 -0.142272 -0.0935669 -0.00931084 -0.144108 
-0.097644 -0.00300542 -0.143495 -0.0898548 -0.0068762 -0.142967 -0.0914245 -0.00230013 -0.143485 
-0.0868799 -0.0022418 -0.141808 -0.0873878 0.00105563 -0.142843 -0.0882873 0.00438345 -0.14318 
-0.0904052 0.00971115 -0.143809 -0.0883066 0.00865971 -0.14185 -0.0892858 0.0131559 -0.143114 
-0.0904651 0.0358136 -0.140231 -0.0883638 -0.0440461 -0.137242 -0.0824799 -0.0143978 -0.140241 
-0.0819488 -0.00787442 -0.139279 -0.0893075 -0.00517683 -0.139339 -0.0942602 -0.00257217 -0.140553 
-0.108905 0.000568872 -0.137809 -0.0832982 0.000221235 -0.140056 -0.0772623 0.00205131 -0.138551 
-0.074015 0.00700802 -0.137097 -0.0761131 0.00897445 -0.137943 -0.105548 0.0264222 -0.141194 
-0.08833 0.0295552 -0.139516 -0.0741432 -0.0156968 -0.135507 -0.0687414 -0.0143484 -0.13448 
-0.0861123 -0.0124688 -0.133594 -0.0693196 -0.0113485 -0.134852 -0.0688292 -0.00814945 -0.134809 
-0.0835227 -0.00525596 -0.135423 -0.0709382 -0.00440915 -0.134798 -0.0658358 -0.00452802 -0.133721 
-0.0744581 -0.000735971 -0.136345 -0.0683444 -0.00138339 -0.134844 -0.095234 0.000192444 -0.138309 
-0.0688303 0.00247421 -0.133858 -0.0816936 0.00652407 -0.135593 -0.0701298 0.00703507 -0.135455 
-0.0684612 0.0096393 -0.134685 -0.067149 0.0122467 -0.133886 -0.0779119 0.0345617 -0.135254 
-0.100715 0.0608583 -0.135325 -0.0596134 -0.0170354 -0.13031 -0.0655969 -0.0124267 -0.132783 
-0.0577971 -0.00794021 -0.129902 -0.0792857 -0.00652625 -0.133549 -0.0626982 -0.00581985 -0.131254 
-0.0658179 -0.00136349 -0.132994 -0.0625574 -0.0015396 -0.132432 -0.0603328 0.00110753 -0.130035 
-0.0871228 0.00415112 -0.134199 -0.0666489 0.00673148 -0.131823 -0.0595455 0.0064067 -0.130985 
-0.0605763 0.0102499 -0.130242 -0.0682835 0.0245225 -0.131975 -0.0560031 -0.0257204 -0.1267 
-0.0530947 -0.0119231 -0.127845 -0.0961057 -0.0134572 -0.131189 -0.056964 -0.0124908 -0.129614 
-0.0537222 -0.005352 -0.127475 -0.0860618 -0.00263782 -0.128785 -0.0809111 -0.00209129 -0.132144 
-0.0721209 0.00079742 -0.127886 -0.0529293 0.00561503 -0.127101 -0.0607731 0.0152037 -0.129562 
-0.0595472 0.019009 -0.128534 -0.0752143 0.0210255 -0.129284 -0.087226 0.00995764 -0.128409 
-0.0477652 -0.00644371 -0.125784 -0.0725021 -0.0153094 -0.126592 -0.0510132 -0.000791951 -0.127438 
-0.0481183 -0.0224346 -0.124705 -0.0216574 -0.00146741 0.0547867 -0.0525716 -0.0156017 -0.124798 
-0.0622354 -0.0144717 -0.12476 -0.0849225 -0.00774276 -0.124091 -0.0535077 -0.00706766 -0.123626 
-0.000963089 0.0159196 0.0524015 -0.0243576 0.01843 0.0553246 -0.00806895 -0.00605423 0.053837 
-0.0436325 -0.000581539 -0.124439 -0.00471052 0.0260351 0.0531201 -0.0126158 -0.00465665 0.0554314 
-0.0465858 0.0186266 -0.123633 -0.0440298 0.024408 -0.12292 -0.0482527 0.0277714 -0.124234 
-0.0332087 -0.020276 0.0550308 -0.0560126 -0.0475036 -0.121486 -0.0422115 -0.0286042 -0.120851 
-0.0574305 -0.00919172 -0.12067 -0.0492812 -0.00629635 -0.121007 -0.0706825 -0.00635964 -0.122004 
-0.073827 -0.00456321 -0.124638 -0.0428051 -0.0027935 -0.120878 -0.0343995 -0.00314482 -0.118902 
-0.0828678 0.00328534 -0.123751 -0.0418002 0.000986098 -0.118884 -0.113099 0.00373669 -0.121015 
-0.0792542 0.00401795 -0.124155 -0.0385251 0.00745427 -0.121447 -0.035607 0.00725874 -0.120572 
-0.11398 0.0219969 -0.122872 -0.0551284 0.0312399 -0.120007 -0.0444362 0.0300032 -0.120848 
-0.0565231 -0.0617503 -0.118329 -0.046972 -0.0251274 -0.118681 -0.0350954 -0.0175291 -0.118142 
-0.0400529 -0.0156542 -0.118856 -0.0275795 -0.00793371 -0.117477 -0.112247 -0.00751259 -0.118203 
-0.046411 -0.00491766 -0.117747 -0.0373772 -0.0101167 -0.121024 -0.0675051 0.00144709 -0.119987 
-0.053546 -0.00190455 -0.118034 -0.0479349 -0.00226198 -0.119223 -0.0485632 0.0036628 -0.115816 
-0.0458484 0.00140932 -0.117841 -0.0364995 0.000379323 -0.113544 -0.0273616 0.0116553 -0.117107 
-0.0471536 0.0213622 -0.120689 -0.0360519 0.0201257 -0.118582 -0.0499364 0.027442 -0.11919 
-0.0413481 0.0260997 -0.116832 -0.0353954 0.0294588 -0.118558 -0.0577595 -0.0211819 -0.112388 
-0.0204118 -0.020597 -0.112228 -0.0358267 -0.0189228 -0.110925 -0.0241455 -0.00804009 -0.114939 
-0.065886 0.00138278 -0.115072 -0.05367 -0.000159164 -0.112934 -0.0675863 0.00424607 -0.115551 
-0.0591051 0.00328655 -0.116148 -0.0257715 0.00607967 -0.110898 -0.0527101 0.00824607 -0.114011 
-0.0353338 0.00602887 -0.114898 -0.0247371 0.0138845 -0.114556 -0.0208605 0.0141721 -0.113438 
-0.0686971 0.0177875 -0.116062 -0.0509963 0.0285907 -0.112292 -0.0475885 -0.0210636 -0.108297 
-0.0251948 -0.0171046 -0.115298 -0.0645186 -0.0147016 -0.110314 -0.0518278 -0.0141852 -0.110236 
-0.0182149 -0.0130041 -0.107008 -0.0537121 -0.00994455 -0.11136 -0.0626617 -0.00813144 -0.112624 
-0.0299857 7.24149e-05 -0.111165 -0.013049 0.00257796 -0.110229 -0.0363441 0.0115033 -0.110833 
-0.0266711 0.01073 -0.111582 -0.0136149 0.0101891 -0.108559 -0.0320563 0.0146831 -0.113919 
-0.0249765 0.0150236 -0.10728 -0.0457264 0.0236894 -0.110267 -0.0401894 0.0244817 -0.109926 
-0.0159998 -0.0469939 -0.106719 -0.0127658 -0.0244635 -0.106632 -0.0170999 -0.016017 -0.105951 
-0.00938057 -0.0187387 -0.105469 -0.0398301 -0.0165904 -0.107291 -0.047844 -0.010522 -0.108046 
-0.0272472 -0.00811664 -0.104166 -0.0140113 -0.00664977 -0.104972 -0.00816484 0.00302073 -0.103983 
-0.0320868 0.00863613 -0.111235 -0.00960259 0.015992 -0.106498 -0.0254738 0.0196974 -0.112976 
-0.0182971 0.0189435 -0.110345 -0.0234976 0.0255425 -0.110362 -0.0196323 0.0321353 -0.109124 
-0.0178271 -0.0301009 -0.102396 -0.0166526 -0.0204171 -0.100985 -0.0159275 -0.0123678 -0.103042 
-0.017 -0.00194475 -0.104636 -0.0394239 0.00529447 -0.104203 -0.0229959 0.0116052 -0.102935 
-0.0116703 0.0177886 -0.109997 -0.0170801 0.0298109 -0.106257 -0.00858455 -0.00884288 -0.109269 
0.0217074 -0.0010234 -0.09687 -0.0146784 0.0100731 -0.103152 -0.0184795 -0.0269407 -0.106602 
-0.033712 -0.00743642 -0.0949959 -0.00390437 -0.00527176 -0.107669 -0.0310592 -0.00121585 -0.107246 
-0.00639582 0.00662071 -0.101726 -0.00937081 0.0258081 -0.105006 -0.00657095 -0.0222035 -0.0988389 
-0.00665099 -0.0147089 -0.10039 -0.0206177 -0.0113305 -0.100269 -0.0123384 -0.0119647 -0.100234 
-0.0104872 0.0175218 -0.0994125 -0.029518 -0.0259191 -0.0947476 -0.0213451 -0.000776551 -0.0956858 
-0.0079193 0.0298979 -0.0962987 -0.0235714 -0.0119867 -0.0909071 -0.0220216 -0.0115727 -0.0832732 
-0.0321609 -0.00607507 -0.0814415 -0.0299907 0.00855733 -0.0816705 -0.0077538 0.0171361 -0.0800997 
-0.00221027 0.0186146 -0.0799621 -0.0173855 -0.0338902 -0.0785714 -0.00676706 -0.00981008 -0.0784451 
-0.00131466 0.00705789 -0.0784456 -0.0311671 0.0123986 -0.0770168 -0.0107659 0.0283687 -0.0768123 
-0.0183398 -0.0212097 -0.0729301 -0.0223604 0.0276055 -0.0716037 -0.00517262 0.0323307 -0.0707761 
-0.00399213 -0.0264375 -0.0631236 -0.0287336 -0.0143436 -0.0638158 -0.0138788 -0.0162448 -0.064827 
-0.00452227 -8.57609e-05 -0.0638413 -0.0232248 0.018953 -0.0634988 -0.0208051 -0.0257611 -0.0587705 
-0.0318082 0.0208697 -0.0609943 -0.00341211 0.0279138 -0.0594247 -0.00154371 -0.0346722 -0.0547371 
-0.0239192 -0.011198 -0.0560076 -0.00558275 -0.00455966 -0.0560891 -0.0293509 -0.0255557 -0.052025 
-0.0193685 0.0119819 -0.0535918 -0.0345917 -0.0281976 -0.0504692 -0.00861311 0.0156758 -0.0469439 
-0.0191536 0.0271245 -0.0500227 -0.0124901 0.0292455 -0.0474558 -0.0184641 0.0346143 -0.0473314 
-0.0188515 -0.0248569 -0.0439096 -0.0319573 -0.0211048 -0.045968 -0.0067008 0.0110709 -0.0442237 
-0.0255212 -0.0322233 -0.0398248 -0.0216218 -0.0306886 -0.041928 -0.0215899 -0.0111508 -0.0412535 
-0.00801538 0.0199359 -0.0380006 -0.0291051 0.026364 -0.0365989 -0.0143365 -0.0079604 -0.0328209 
-0.00353272 0.0202053 -0.0326492 -0.00957752 -0.023935 -0.0297852 -0.0136772 0.0221297 -0.0322525 
-0.0109636 -0.0311008 -0.0269548 -0.0194255 -0.0262921 -0.026886 -0.0129094 -0.0188123 -0.0277441 
-0.0267273 0.0202325 -0.0277753 -0.00135906 -0.0285348 -0.0245521 -0.0293542 -0.0154504 -0.0212923 
-0.0144604 0.0146238 -0.0226929 -0.0147423 -0.00564426 -0.017642 -0.00986991 0.00120138 -0.0191495 
-0.0102718 0.00457908 -0.0162375 -0.0312961 0.0169384 -0.0144864 -0.0165007 0.0290903 -0.0166607 
-0.0298384 -0.0303038 -0.0125096 -0.011677 -0.0284877 -0.0124622 -0.00247583 0.0215485 -0.0114403 
-0.000325902 -0.0296171 -0.00821194 -0.00025791 -0.0162541 -0.00844466 -0.00282712 0.00545747 -0.00720143 
-0.00180751 0.0338204 -0.00718316 -0.00105657 0.0183981 -0.00433147 -0.0198718 -0.0194218 0.00066736 
-0.00462244 -0.00933596 -0.00265978 -0.0181237 -0.00251957 0.00015433 -0.0312886 -0.013967 0.00412213 
-0.0120116 -0.010599 0.0014086 -0.00101568 -0.00765357 0.00266285 -0.0290561 -0.00430439 0.00205966 
-0.0139184 0.0334821 0.00199083 -0.0297716 0.0219768 0.00744219 -0.0217046 0.022596 0.00537938 
-0.00392958 0.028377 0.00720242 -0.0258137 0.00190826 0.008738 -0.0256024 -0.0344097 0.0148284 
-0.018075 -0.0348859 0.0151626 -0.0252769 -0.0118968 0.0124875 -0.0161376 -0.013045 0.0136425 
-0.0189065 0.00370031 0.0136391 -0.027285 0.0339661 0.0136572 -0.000358392 -0.033522 0.017189 
-0.0264186 -0.0226941 0.0184055 -0.00508037 -0.0105724 0.0174668 -0.0266756 0.00717374 0.0184181 
-0.0131504 0.0195227 0.0156779 -0.00409419 -0.012465 0.0209395 -0.0236813 0.00467646 0.0200157 
-0.00122887 0.00667973 0.025447 -0.0333891 0.0071378 0.025303 -0.0269024 0.0141667 0.0239081 
-0.0198207 -0.00974077 0.0268871 -0.0346531 0.00651434 0.0294283 -0.0302628 0.0298152 0.0302832 
-0.0115665 -0.0335308 0.0331314 -0.00437192 -0.0158774 0.0320087 -0.00708289 0.0112854 0.0339748 
-0.0278976 0.0186818 0.0307529 -0.0337467 -0.0346591 0.0353053 -0.0222014 -0.0279164 0.0362084 
-0.0248475 0.000547331 0.0370015 -0.0163221 0.000125533 0.0374587 -0.0296409 0.00549128 0.0340252 
-0.00787767 0.029374 0.0343447 -0.0138113 -0.0228149 0.0400754 -0.0143318 -0.00453168 0.040949 
-0.0323792 0.00745233 0.0388479 -0.00853525 0.0143489 0.038205 -0.0245742 0.0185516 0.0389855 
-0.0113106 -0.0321944 0.0417872 -0.00173502 -0.0285329 0.0428903 -0.00944666 -0.00985484 0.042569 
-0.0222962 0.0151486 0.042798 -0.0203247 -0.0257375 0.0485323 -0.0130711 -0.0176738 0.0468186 
-0.019244 -0.00161366 0.0453113 -0.019337 0.0214972 0.0481946 -0.0241802 0.0341052 0.0481061 
-0.0236309 0.0189654 0.0495507 -0.0117135 -0.0343578 0.0533004 
VERTICES 506 1012
1 0 
1 1 
1 2 
1 3 
1 4 
1 5 
1 6 
1 7 
1 8 
1 9 
1 10 
1 11 
1 12 
1 13 
1 14 
1 15 
1 16 
1 17 
1 18 
1 19 
1 20 
1 21 
1 22 
1 23 
1 24 
1 25 
1 26 
1 27 
1 28 
1 29 
1 30 
1 31 
1 32 
1 33 
1 34 
1 35 
1 36 
1 37 
1 38 
1 39 
1 40 
1 41 
1 42 
1 43 
1 44 
1 45 
1 46 
1 47 
1 48 
1 49 
1 50 
1 51 
1 52 
1 53 
1 54 
1 55 
1 56 
1 57 
1 58 
1 59 
1 60 
1 61 
1 62 
1 63 
1 64 
1 65 
1 66 
1 67 
1 68 
1 69 
1 70 
1 71 
1 72 
1 73 
1 74 
1 75 
1 76 
1 77 
1 78 
1 79 
1 80 
1 81 
1 82 
1 83 
1 84 
1 85 
1 86 
1 87 
1 88 
1 89 
1 90 
1 91 
1 92 
1 93 
1 94 
1 95 
1 96 
1 97 
1 98 
1 99 
1 100 
1 101 
1 102 
1 103 
1 104 
1 105 
1 106 
1 107 
1 108 
1 109 
1 110 
1 111 
1 112 
1 113 
1 114 
1 115 
1 116 
1 117 
1 118 
1 119 
1 120 
1 121 
1 122 
1 123 
1 124 
1 125 
1 126 
1 127 
1 128 
1 129 
1 130 
1 131 
1 132 
1 133 
1 134 
1 135 
1 136 
1 137 
1 138 
1 139 
1 140 
1 141 
1 142 
1 143 
1 144 
1 145 
1 146 
1 147 
1 148 
1 149 
1 150 
1 151 
1 152 
1 153 
1 154 
1 155 
1 156 
1 157 
1 158 
1 159 
1 160 
1 161 
1 162 
1 163 
1 164 
1 165 
1 166 
1 167 
1 168 
1 169 
1 170 
1 171 
1 172 
1 173 
1 174 
1 175 
1 176 
1 177 
1 178 
1 179 
1 180 
1 181 
1 182 
1 183 
1 184 
1 185 
1 186 
1 187 
1 188 
1 189 
1 190 
1 191 
1 192 
1 193 
1 194 
1 195 
1 196 
1 197 
1 198 
1 199 
1 200 
1 201 
1 202 
1 203 
1 204 
1 205 
1 206 
1 207 
1 208 
1 209 
1 210 
1 211 
1 212 
1 213 
1 214 
1 215 
1 216 
1 217 
1 218 
1 219 
1 220 
1 221 
1 222 
1 223 
1 224 
1 225 
1 226 
1 227 
1 228 
1 229 
1 230 
1 231 
1 232 
1 233 
1 234 
1 235 
1 236 
1 237 
1 238 
1 239 
1 240 
1 241 
1 242 
1 243 
1 244 
1 245 
1 246 
1 247 
1 248 
1 249 
1 250 
1 251 
1 252 
1 253 
1 254 
1 255 
1 256 
1 257 
1 258 
1 259 
1 260 
1 261 
1 262 
1 263 
1 264 
1 265 
1 266 
1 267 
1 268 
1 269 
1 270 
1 271 
1 272 
1 273 
1 274 
1 275 
1 276 
1 277 
1 278 
1 279 
1 280 
1 281 
1 282 
1 283 
1 284 
1 285 
1 286 
1 287 
1 288 
1 289 
1 290 
1 291 
1 292 
1 293 
1 294 
1 295 
1 296 
1 297 
1 298 
1 299 
1 300 
1 301 
1 302 
1 303 
1 304 
1 305 
1 306 
1 307 
1 308 
1 309 
1 310 
1 311 
1 312 
1 313 
1 314 
1 315 
1 316 
1 317 
1 318 
1 319 
1 320 
1 321 
1 322 
1 323 
1 324 
1 325 
1 326 
1 327 
1 328 
1 329 
1 330 
1 331 
1 332 
1 333 
1 334 
1 335 
1 336 
1 337 
1 338 
1 339 
1 340 
1 341 
1 342 
1 343 
1 344 
1 345 
1 346 
1 347 
1 348 
1 349 
1 350 
1 351 
1 352 
1 353 
1 354 
1 355 
1 356 
1 357 
1 358 
1 359 
1 360 
1 361 
1 362 
1 363 
1 364 
1 365 
1 366 
1 367 
1 368 
1 369 
1 370 
1 371 
1 372 
1 373 
1 374 
1 375 
1 376 
1 377 
1 378 
1 379 
1 380 
1 381 
1 382 
1 383 
1 384 
1 385 
1 386 
1 387 
1 388 
1 389 
1 390 
1 391 
1 392 
1 393 
1 394 
1 395 
1 396 
1 397 
1 398 
1 399 
1 400 
1 401 
1 402 
1 403 
1 404 
1 405 
1 406 
1 407 
1 408 
1 409 
1 410 
1 411 
1 412 
1 413 
1 414 
1 415 
1 416 
1 417 
1 418 
1 419 
1 420 
1 421 
1 422 
1 423 
1 424 
1 425 
1 426 
1 427 
1 428 
1 429 
1 430 
1 431 
1 432 
1 433 
1 434 
1 435 
1 436 
1 437 
1 438 
1 439 
1 440 
1 441 
1 442 
1 443 
1 444 
1 445 
1 446 
1 447 
1 448 
1 449 
1 450 
1 451 
1 452 
1 453 
1 454 
1 455 
1 456 
1 457 
1 458 
1 459 
1 460 
1 461 
1 462 
1 463 
1 464 
1 465 
1 466 
1 467 
1 468 
1 469 
1 470 
1 471 
1 472 
1 473 
1 474 
1 475 
1 476 
1 477 
1 478 
1 479 
1 480 
1 481 
1 482 
1 483 
1 484 
1 485 
1 486 
1 487 
1 488 
1 489 
1 490 
1 491 
1 492 
1 493 
1 494 
1 495 
1 496 
1 497 
1 498 
1 499 
1 500 
1 501 
1 502 
1 503 
1 504 
1 505 

POINT_DATA 506
FIELD FieldData 7
id 1 506 int
56 9 16 30 19 34 31 3 2 
32 26 7 60 22 38 24 33 6 
23 36 5 1 10 79 13 27 21 
11 68 28 108 88 54 40 57 41 
99 58 42 101 48 8 126 92 53 
14 29 49 45 46 201 72 253 83 
50 63 18 87 43 93 44 4 15 
116 142 51 122 85 20 67 52 84 
125 69 17 133 70 130 59 76 62 
12 112 96 109 35 166 100 156 64 
132 65 148 75 104 61 39 162 47 
174 145 73 55 71 114 37 147 74 
94 103 158 267 134 77 177 82 176 
175 111 167 192 182 25 136 150 118 
95 154 163 120 196 89 200 90 143 
138 146 140 98 110 78 144 187 128 
198 121 97 139 66 81 86 137 181 
204 186 185 135 123 153 105 80 157 
245 165 159 170 155 209 141 127 233 
161 271 91 274 113 124 129 202 227 
203 188 117 243 164 102 178 183 230 
171 228 191 224 149 152 208 172 180 
206 260 131 199 119 252 189 211 194 
257 214 207 160 220 265 215 205 212 
218 221 169 219 193 168 115 106 232 
190 258 197 223 184 238 216 315 251 
235 281 217 247 285 240 234 266 226 
269 151 179 328 268 225 229 239 236 
254 241 256 299 327 262 248 287 321 
237 506 286 290 270 249 497 495 498 
273 496 505 242 213 261 494 255 347 
289 333 275 250 317 272 259 322 244 
246 335 297 222 210 324 107 295 337 
313 296 231 320 348 278 308 277 311 
305 345 340 323 291 294 319 173 309 
303 338 306 302 293 284 288 341 304 
316 334 264 282 325 310 365 300 307 
351 314 279 326 339 342 298 358 329 
352 280 283 195 350 336 343 312 292 
318 349 366 331 363 354 356 332 359 
346 344 364 357 301 330 362 353 360 
263 361 355 276 376 371 377 375 368 
373 379 367 369 374 372 378 370 389 
380 387 390 388 391 383 386 384 385 
381 392 382 400 394 397 402 398 403 
395 401 396 404 399 405 393 413 412 
417 410 411 415 409 407 406 418 408 
416 414 430 429 424 419 422 426 428 
425 420 423 421 442 427 437 441 436 
432 434 435 440 433 438 431 439 447 
454 452 450 453 451 446 443 448 449 
444 445 457 458 464 460 466 463 455 
456 462 461 459 467 465 474 472 479 
469 478 477 473 470 476 480 468 486 
484 490 475 471 487 493 492 485 481 
489 488 491 483 504 499 482 503 502 
500 501 
type 1 506 int
1 1 1 1 1 1 1 1 1 
1 1 1 1 1 1 1 1 1 
1 1 1 1 1 1 1 1 1 
1 1 1 1 1 1 1 1 1 
1 1 1 1 1 1 1 1 1 
1 1 1 1 1 1 1 1 1 
1 1 1 1 1 1 1 1 1 
1 1 1 1 1 1 1 1 1 
1 1 1 1 1 1 1 1 1 
1 1 1 1 1 1 1 1 1 
1 1 1 1 1 1 1 1 1 
1 1 1 1 1 1 1 1 1 
1 1 1 1 1 1 1 1 1 
1 1 1 1 1 1 1 1 1 
1 1 1 1 1 1 1 1 1 
1 1 1 1 1 1 1 1 1 
1 1 1 1 1 1 1 1 1 
1 1 1 1 1 1 1 1 1 
1 1 1 1 1 1 1 1 1 
1 1 1 1 1 1 1 1 1 
1 1 1 1 1 1 1 1 1 
1 1 1 1 1 1 1 1 1 
1 1 1 1 1 1 1 1 1 
1 1 1 1 1 1 1 1 1 
1 1 1 1 1 1 1 1 1 
1 1 1 1 1 1 1 1 1 
1 1 1 1 1 1 1 1 1 
1 1 1 1 1 1 1 1 1 
1 1 1 1 1 1 1 1 1 
1 1 1 1 1 1 1 1 1 
1 1 1 1 1 1 1 1 1 
1 1 1 1 1 1 1 1 1 
1 1 1 1 1 1 1 1 1 
1 1 1 1 1 1 1 1 1 
1 1 1 1 1 1 1 1 1 
1 1 1 1 1 1 1 1 1 
1 1 1 1 1 1 1 1 1 
1 1 1 1 1 1 1 1 1 
1 1 1 1 1 1 1 1 1 
1 1 1 1 1 1 1 1 1 
1 1 1 1 1 1 1 1 1 
1 1 1 1 1 1 1 1 1 
1 1 1 1 1 1 1 1 1 
1 1 1 1 1 1 1 1 1 
1 1 1 1 1 1 1 1 1 
1 1 1 1 1 1 1 1 1 
1 1 1 1 1 1 1 1 1 
1 1 1 1 1 1 1 1 1 
1 1 1 1 1 1 1 1 1 
1 1 1 1 1 1 1 1 1 
1 1 1 1 1 1 1 1 1 
1 1 1 1 1 1 1 1 1 
1 1 1 1 1 1 1 1 1 
1 1 1 1 1 1 1 1 1 
1 1 1 1 1 1 1 1 1 
1 1 1 1 1 1 1 1 1 
1 1 
i 3 506 int
0 0 0 0 0 0 0 0 0 
0 0 0 0 0 0 0 0 0 
0 0 0 0 0 0 0 0 0 
0 0 0 0 0 0 0 0 0 
0 0 0 0 0 0 0 0 0 
0 0 0 0 0 0 0 0 0 
0 0 0 0 0 0 0 0 0 
0 0 0 0 0 0 0 0 0 
0 0 0 0 0 0 0 0 0 
0 0 0 0 0 0 0 0 0 
0 0 0 0 0 0 0 0 0 
0 0 0 0 0 0 0 0 0 
0 0 0 0 0 0 0 0 0 
0 0 0 0 0 0 0 0 0 
0 0 0 0 0 0 0 0 0 
0 0 0 0 0 0 0 0 0 
0 0 0 0 0 0 0 0 0 
0 0 0 0 0 0 0 0 0 
0 0 0 0 0 0 0 0 0 
0 0 0 0 0 0 0 0 0 
0 0 0 0 0 0 0 0 0 
0 0 0 0 0 0 0 0 0 
0 0 0 0 0 0 0 0 0 
0 0 0 0 0 0 0 0 0 
0 0 0 0 0 0 0 0 0 
0 0 0 0 0 0 0 0 0 
0 0 0 0 0 0 0 0 0 
0 0 0 0 0 0 0 0 0 
0 0 0 0 0 0 0 0 0 
0 0 0 0 0 0 0 0 0 
0 0 0 0 0 0 0 0 0 
0 0 0 0 0 0 0 0 0 
0 0 0 0 0 0 0 0 0 
0 0 0 0 0 0 0 0 0 
0 0 0 0 0 0 0 0 0 
0 0 0 0 0 0 0 0 0 
0 0 0 0 0 0 0 0 0 
0 0 0 0 0 0 0 0 0 
0 0 0 0 0 0 0 0 0 
0 0 0 0 0 0 0 0 0 
0 0 0 0 0 0 0 0 0 
0 0 0 0 0 0 0 0 0 
0 0 0 0 0 0 0 0 0 
0 0 0 0 0 0 0 0 0 
0 0 0 0 0 0 0 0 0 
0 0 0 0 0 0 0 0 0 
0 0 0 0 0 0 0 0 0 
0 0 0 0 0 0 0 0 0 
0 0 0 0 0 0 0 0 0 
0 0 0 0 0 0 0 0 0 
0 0 0 0 0 0 0 0 0 
0 0 0 0 0 0 0 0 0 
0 0 0 0 0 0 0 0 0 
0 0 0 0 0 0 0 0 0 
0 0 0 0 0 0 0 0 0 
0 0 0 0 0 0 0 0 0 
0 0 0 0 0 0 0 0 0 
0 0 0 0 0 0 0 0 0 
0 0 0 0 0 0 0 0 0 
0 0 0 0 0 0 0 0 0 
0 0 0 0 0 0 0 0 0 
0 0 0 0 0 0 0 0 0 
0 0 0 0 0 0 0 0 0 
0 0 0 0 0 0 0 0 0 
0 0 0 0 0 0 0 0 0 
0 0 0 0 0 0 0 0 0 
0 0 0 0 0 0 0 0 0 
0 0 0 0 0 0 0 0 0 
0 0 0 0 0 0 0 0 0 
0 0 0 0 0 0 0 0 0 
0 0 0 0 0 0 0 0 0 
0 0 0 0 0 0 0 0 0 
0 0 0 0 0 0 0 0 0 
0 0 0 0 0 0 0 0 0 
0 0 0 0 0 0 0 0 0 
0 0 0 0 0 0 0 0 0 
0 0 0 0 0 0 0 0 0 
0 0 0 0 0 0 0 0 0 
0 0 0 0 0 0 0 0 0 
0 0 0 0 0 0 0 0 0 
0 0 0 0 0 0 0 0 0 
0 0 0 0 0 0 0 0 0 
0 0 0 0 0 0 0 0 0 
0 0 0 0 0 0 0 0 0 
0 0 0 0 0 0 0 0 0 
0 0 0 0 0 0 0 0 0 
0 0 0 0 0 0 0 0 0 
0 0 0 0 0 0 0 0 0 
0 0 0 0 0 0 0 0 0 
0 0 0 0 0 0 0 0 0 
0 0 0 0 0 0 0 0 0 
0 0 0 0 0 0 0 0 0 
0 0 0 0 0 0 0 0 0 
0 0 0 0 0 0 0 0 0 
0 0 0 0 0 0 0 0 0 
0 0 0 0 0 0 0 0 0 
0 0 0 0 0 0 0 0 0 
0 0 0 0 0 0 0 0 0 
0 0 0 0 0 0 0 0 0 
0 0 0 0 0 0 0 0 0 
0 0 0 0 0 0 0 0 0 
0 0 0 0 0 0 0 0 0 
0 0 0 0 0 0 0 0 0 
0 0 0 0 0 0 0 0 0 
0 0 0 0 0 0 0 0 0 
0 0 0 0 0 0 0 0 0 
0 0 0 0 0 0 0 0 0 
0 0 0 0 0 0 0 0 0 
0 0 0 0 0 0 0 0 0 
0 0 0 0 0 0 0 0 0 
0 0 0 0 0 0 0 0 0 
0 0 0 0 0 0 0 0 0 
0 0 0 0 0 0 0 0 0 
0 0 0 0 0 0 0 0 0 
0 0 0 0 0 0 0 0 0 
0 0 0 0 0 0 0 0 0 
0 0 0 0 0 0 0 0 0 
0 0 0 0 0 0 0 0 0 
0 0 0 0 0 0 0 0 0 
0 0 0 0 0 0 0 0 0 
0 0 0 0 0 0 0 0 0 
0 0 0 0 0 0 0 0 0 
0 0 0 0 0 0 0 0 0 
0 0 0 0 0 0 0 0 0 
0 0 0 0 0 0 0 0 0 
0 0 0 0 0 0 0 0 0 
0 0 0 0 0 0 0 0 0 
0 0 0 0 0 0 0 0 0 
0 0 0 0 0 0 0 0 0 
0 0 0 0 0 0 0 0 0 
0 0 0 0 0 0 0 0 0 
0 0 0 0 0 0 0 0 0 
0 0 0 0 0 0 0 0 0 
0 0 0 0 0 0 0 0 0 
0 0 0 0 0 0 0 0 0 
0 0 0 0 0 0 0 0 0 
0 0 0 0 0 0 0 0 0 
0 0 0 0 0 0 0 0 0 
0 0 0 0 0 0 0 0 0 
0 0 0 0 0 0 0 0 0 
0 0 0 0 0 0 0 0 0 
0 0 0 0 0 0 0 0 0 
0 0 0 0 0 0 0 0 0 
0 0 0 0 0 0 0 0 0 
0 0 0 0 0 0 0 0 0 
0 0 0 0 0 0 0 0 0 
0 0 0 0 0 0 0 0 0 
0 0 0 0 0 0 0 0 0 
0 0 0 0 0 0 0 0 0 
0 0 0 0 0 0 0 0 0 
0 0 0 0 0 0 0 0 0 
0 0 0 0 0 0 0 0 0 
0 0 0 0 0 0 0 0 0 
0 0 0 0 0 0 0 0 0 
0 0 0 0 0 0 0 0 0 
0 0 0 0 0 0 0 0 0 
0 0 0 0 0 0 0 0 0 
0 0 0 0 0 0 0 0 0 
0 0 0 0 0 0 0 0 0 
0 0 0 0 0 0 0 0 0 
0 0 0 0 0 0 0 0 0 
0 0 0 0 0 0 0 0 0 
0 0 0 0 0 0 0 0 0 
0 0 0 0 0 0 0 0 0 
0 0 0 0 0 0 0 0 0 
0 0 0 0 0 0 0 0 0 
0 0 0 0 0 0 0 0 0 
0 0 0 0 0 0 0 0 0 
0 0 0 0 0 0 
v 3 506 double
-1.56657 -0.176984 -0.865669 -1.43935 -0.123008 -0.572363 -1.327 0.00628623 -0.560412 
-1.23357 0.118953 -0.536704 -1.06547 0.0536524 -0.4541 -1.35768 -0.0534293 -0.496809 
-1.2783 0.00418508 -0.529892 -1.24572 0.201448 -0.535696 -1.02445 -0.0848286 -0.37016 
-1.16949 0.160733 -0.493799 -1.24787 0.0197102 -0.499141 -1.11572 -0.0485108 -0.46589 
-0.99419 0.117952 -0.428069 -1.10679 0.044186 -0.461607 -1.0069 0.275241 -0.312373 
-1.20582 -0.267663 -0.716493 -1.04052 -0.100482 -0.397412 -0.97464 -0.00496118 -0.446385 
-1.01342 -0.0188877 -0.429619 -0.975496 0.0806332 -0.412341 -1.1398 0.0703217 -0.472705 
-1.09707 0.0567222 -0.452205 -0.89718 -0.0490914 -0.383764 -0.907968 -0.17377 -0.362716 
-0.994636 0.0298282 -0.425563 -1.11832 -0.107013 -0.692501 -1.09216 0.0574285 -0.457039 
-0.979275 0.148568 -0.383959 -1.25672 -0.162902 -0.530807 -1.08113 0.108999 -0.433257 
-1.23187 0.0811541 -0.49097 -0.777197 -0.0428661 -0.326028 -0.854802 0.0585729 -0.361416 
-0.953082 -0.0699219 -0.424079 -0.989044 -0.0619246 -0.428722 -1.04026 -0.00201247 -0.423952 
-1.16246 0.123821 -0.503632 -1.18103 -0.122357 -0.444532 -0.938467 -0.0156187 -0.390415 
-0.974547 -0.0345957 -0.420255 -0.965321 0.0766226 -0.390342 -1.01014 -0.107907 -0.440033 
-1.13163 -0.140831 -0.266742 -1.12276 0.131733 -0.48648 -0.789769 -0.0534328 -0.766651 
-0.90548 -0.0311771 -0.37777 -0.881536 -0.0187357 -0.379148 -0.892066 -0.120189 -0.369822 
-0.833155 0.00100119 -0.226347 -0.899215 0.00749581 -0.387132 -0.786935 0.121324 -0.228145 
-0.906945 0.137039 -0.360545 -0.44991 0.0195817 -0.389004 -0.832613 0.157387 -0.393356 
-0.803833 -0.0241385 -0.344341 -1.15966 -0.0806927 -0.181714 -0.718117 -0.213951 -0.246852 
-0.645085 -0.114659 -0.353368 -0.901358 0.11041 -0.36047 -0.98736 -0.143412 -0.436119 
-0.943442 -0.164308 -0.440178 -1.03633 -0.0160775 -0.426001 -0.839746 -0.0280534 -0.343346 
-0.842677 -0.157482 -0.280447 -1.23514 0.0257811 -0.376458 -0.769216 0.0584872 -0.321997 
-1.0586 -0.0849556 -0.432191 -0.78996 -0.046374 -0.333766 -0.933527 0.233605 -0.46836 
-1.02904 -0.0208186 -0.414724 -0.602391 -0.100292 -0.23114 -0.71661 -0.0304925 -0.336907 
-0.608647 -0.129604 -0.248897 -0.729449 -0.0300389 -0.299899 -0.730382 -0.0261085 -0.301993 
-0.545774 0.01814 -0.227421 -0.770505 0.0627388 -0.326279 -1.12644 -0.0895796 -0.494131 
-0.940195 -0.040349 -0.393329 -0.987366 0.00984674 -0.396872 -0.936186 0.0567428 -0.376891 
-0.750467 -0.0847973 -0.317341 -0.672988 -0.0826307 -0.278346 -0.703181 -0.0866203 -0.285089 
-0.996644 -0.0283876 -0.630504 -0.725246 -0.082084 -0.297625 -0.808924 -0.0733546 -0.345086 
-1.05094 -0.015827 -0.528759 -0.760233 -0.0634043 -0.29965 -0.771761 -0.0130186 -0.334052 
-0.916158 -0.0320064 -0.162617 -0.708425 0.0131735 -0.288909 -1.13829 0.114939 -0.780855 
-1.04029 0.122668 -0.378522 -0.957869 -0.0267837 -0.360664 -0.771314 -0.130658 -0.305169 
-0.877035 -0.151218 -0.401334 -1.07866 -0.109455 -0.536841 -0.752398 -0.0365631 -0.319809 
-0.704715 0.0793497 -0.289025 -0.928423 0.0512623 -0.449528 -0.701672 0.0240218 -0.281281 
-0.605999 0.00103753 -0.238836 -0.980666 0.187671 -0.406585 -0.993767 0.165782 -0.401813 
-0.760988 0.0962468 -0.307302 -0.835073 -0.160203 -0.427492 -0.883344 -0.0165098 -0.362981 
-0.855122 -0.00490884 -0.352587 -0.874708 -0.0757333 -0.361746 -0.874949 0.00443039 -0.363483 
-0.721633 -0.0314972 -0.30292 -1.21799 -0.0254406 -0.288678 -0.915232 -0.0197219 -0.376887 
-0.982748 0.121986 -0.273667 -0.80109 0.0175553 -0.32535 -0.686838 -0.12074 -0.261699 
-0.786513 -0.0170356 -0.334765 -0.710528 -0.0263609 -0.298213 -0.810097 -0.00495697 -0.34368 
-1.01738 0.0887625 -0.422956 -0.627309 0.0311322 -0.303412 -0.782418 0.138445 -0.318738 
-0.739692 0.272384 -0.245701 -0.809496 0.0561931 -0.349422 -0.726564 -0.0263665 -0.300946 
-0.770798 -0.0296934 -0.318588 -0.843015 -0.0364588 -0.349232 -0.9514 -0.0983346 -0.321733 
-0.846941 -0.0391904 -0.341485 -1.01409 -0.301251 -0.51171 -0.680894 -0.0659368 -0.286526 