# vtk DataFile Version 4.0
Generated by LIGGGHTS
ASCII
DATASET POLYDATA
POINTS 684 float
-0.495031 0.000521884 -0.386433 -0.473842 0.00171495 -0.368553 -0.497546 -0.0446488 -0.367171 
-0.479628 0.030541 -0.364689 -0.462082 0.0249445 -0.35093 -0.443897 -0.00121637 -0.347236 
-0.465483 0.0290825 -0.346899 -0.457315 0.0330443 -0.348273 -0.443585 0.0189399 -0.335432 
-0.427814 -0.0355662 -0.32189 -0.444157 0.0143023 -0.325379 -0.439542 -0.0269297 -0.316007 
-0.417877 -0.017526 -0.311371 -0.424234 -0.0104149 -0.313706 -0.422289 0.0229157 -0.311888 
-0.407859 0.0130987 -0.309193 -0.418886 0.0208719 -0.306103 -0.410906 -0.0269312 -0.30639 
-0.41357 0.01403 -0.304498 -0.403517 -0.0060366 -0.299224 -0.409269 0.00751855 -0.301287 
-0.402458 -0.00668477 -0.294933 -0.392058 0.00285377 -0.287783 -0.389431 0.0116396 -0.288592 
-0.399268 0.0265932 -0.287193 -0.401264 0.0325965 -0.288143 -0.409825 -0.0425664 -0.287386 
-0.387073 -0.0136033 -0.282813 -0.379846 -0.00410038 -0.289737 -0.392459 0.0154703 -0.28415 
-0.403016 0.0523236 -0.284149 -0.384662 0.000888211 -0.281116 -0.388379 -0.00452928 -0.279691 
-0.380151 0.0137127 -0.276967 -0.379685 -0.0264031 -0.273244 -0.376441 0.00323534 -0.273624 
-0.371955 0.00207137 -0.270179 -0.377843 0.0107865 -0.271642 -0.373181 0.0225822 -0.269091 
-0.363023 -0.00182359 -0.265321 -0.359317 0.00295192 -0.263376 -0.363355 -0.0122992 -0.260789 
-0.355164 -0.0095354 -0.260163 -0.359439 -0.0216866 -0.258706 -0.348426 -0.0098144 -0.256694 
-0.352786 0.000430225 -0.258293 -0.356247 0.00388132 -0.258974 -0.352395 0.00981216 -0.257419 
-0.391715 -0.0545838 -0.255016 -0.346013 -0.0124976 -0.250294 -0.342308 -0.0101081 -0.250765 
-0.346915 -0.00704973 -0.253529 -0.345538 0.00243884 -0.252599 -0.355351 0.0247894 -0.254771 
-0.347368 -0.0108447 -0.247205 -0.330557 -0.00057886 -0.245755 -0.33567 0.00232857 -0.248731 
-0.33411 0.0046124 -0.247273 -0.340194 0.0197202 -0.24852 -0.349703 0.0243508 -0.250447 
-0.343217 -0.0263975 -0.24663 -0.335474 -0.0170852 -0.24627 -0.33348 -0.014037 -0.245889 
-0.329608 -0.0121918 -0.243289 -0.329144 -0.00831754 -0.244473 -0.325706 -0.00157126 -0.243387 
-0.325033 0.00193292 -0.24312 -0.355892 0.0408591 -0.248643 -0.335327 -0.0268466 -0.242728 
-0.321137 -0.0117031 -0.240829 -0.322098 0.00228662 -0.241817 -0.324438 0.0120708 -0.242204 
-0.330202 0.0252483 -0.24222 -0.31078 -0.0124115 -0.236262 -0.313784 0.0095461 -0.236771 
-0.309893 0.00822292 -0.236301 -0.311801 0.0132614 -0.236779 -0.33181 0.031689 -0.239117 
-0.306004 -0.0149271 -0.232926 -0.307142 -0.0103849 -0.234894 -0.304478 -0.00760946 -0.234259 
-0.30118 -0.00526633 -0.231867 -0.292324 -0.00897784 -0.228999 -0.288853 -0.00728957 -0.227681 
-0.304906 0.0254324 -0.230433 -0.314851 -0.0458894 -0.227616 -0.295099 -0.0271761 -0.226963 
-0.294225 -0.0220518 -0.226778 -0.284903 -0.0207581 -0.224259 -0.288085 -0.0178775 -0.226128 
-0.284364 -0.0163543 -0.224855 -0.292496 -0.0127375 -0.227554 -0.288065 -0.0108058 -0.227013 
-0.29711 -0.0100042 -0.22871 -0.280516 -0.00498055 -0.224244 -0.290594 -0.00288506 -0.227483 
-0.286933 3.8103e-05 -0.225538 -0.290437 0.00607891 -0.22823 -0.287833 0.00820324 -0.226994 
-0.291034 0.0126831 -0.226974 -0.289409 0.0215413 -0.225875 -0.29805 -0.0401818 -0.22371 
-0.294945 -0.0349907 -0.223354 -0.281084 -0.0174101 -0.223293 -0.275737 -0.0101255 -0.221903 
-0.276362 0.00265531 -0.222525 -0.280236 0.00604962 -0.222851 -0.276217 0.00986949 -0.222032 
-0.274001 0.0079676 -0.221032 -0.27861 0.0125848 -0.22289 -0.278195 0.0157371 -0.220867 
-0.292409 0.0310726 -0.223588 -0.285775 0.027786 -0.22303 -0.28957 0.0343772 -0.222048 
-0.281586 -0.0269715 -0.221552 -0.275511 -0.025459 -0.219451 -0.273199 -0.0199308 -0.219524 
-0.266229 -0.0172244 -0.217115 -0.272846 -0.0101063 -0.220696 -0.265979 -0.0123234 -0.217565 
-0.271119 0.00801902 -0.22004 -0.26553 0.00958497 -0.21761 -0.268333 0.0136666 -0.218407 
-0.274181 0.0138993 -0.220806 -0.271621 0.0195244 -0.218831 -0.298145 -0.0516183 -0.218135 
-0.264838 -0.0163015 -0.214611 -0.261205 -0.0178074 -0.214923 -0.270879 -0.0105675 -0.216851 
-0.261732 -0.0132779 -0.215682 -0.266988 -0.00848123 -0.216189 -0.260315 0.0018608 -0.215779 
-0.258376 0.00595592 -0.214763 -0.265791 -0.035153 -0.212586 -0.264124 -0.0312669 -0.212014 
-0.257148 -0.0279558 -0.211008 -0.256498 -0.0205866 -0.212374 -0.253789 -0.0184067 -0.210265 
-0.254034 -0.0105232 -0.212773 -0.256061 -0.00564479 -0.213891 -0.253517 0.00295159 -0.211773 
-0.248792 0.0027383 -0.210863 -0.2611 0.0297003 -0.212249 -0.257507 -0.0367425 -0.20839 
-0.274568 -0.0209457 -0.208456 -0.239346 0.00684921 -0.206576 -0.247856 0.0121436 -0.209998 
-0.243613 0.0150098 -0.206689 -0.266125 0.0468568 -0.207075 -0.244584 -0.0368338 -0.203417 
-0.234711 -0.0125014 -0.204287 -0.233077 -0.00590661 -0.203037 -0.237562 -0.00289647 -0.205157 
-0.237014 0.01113 -0.204459 -0.239311 0.0218782 -0.203933 -0.2373 0.0274084 -0.202998 
-0.249172 0.0406722 -0.202844 -0.272357 0.0574751 -0.204483 -0.22825 -0.0117891 -0.201648 
-0.228621 -0.00435974 -0.201307 -0.221326 -0.00432021 -0.199346 -0.223465 0.00322812 -0.199049 
-0.22546 0.0081753 -0.199781 -0.23545 0.0177604 -0.2029 -0.234016 -0.0390249 -0.197181 
-0.226029 -0.0270314 -0.198346 -0.235027 -0.0172555 -0.198867 -0.218455 -0.0132075 -0.197362 
-0.226075 -0.00854256 -0.19878 -0.218934 -0.00659401 -0.19708 -0.215836 0.000394953 -0.195894 
-0.219058 0.00526869 -0.198256 -0.217722 0.0109604 -0.197368 -0.221153 0.0148789 -0.198353 
-0.222914 0.0248025 -0.197622 -0.216777 -0.0159446 -0.194425 -0.210678 -0.0108689 -0.194332 
-0.228019 0.00230053 -0.198454 -0.222487 -0.00167611 -0.198095 -0.208907 -0.0032896 -0.194051 
-0.209316 0.00122118 -0.194189 -0.209066 0.00643624 -0.192969 -0.240246 0.0149531 -0.193631 
-0.210643 0.0254929 -0.19232 -0.216446 -0.0426253 -0.188821 -0.224889 -0.00458513 -0.191124 
-0.236832 0.00967677 -0.189275 -0.229955 0.027071 -0.189683 -0.235261 0.0564546 -0.189953 
-0.221372 0.0560644 -0.185997 -0.209572 0.0612024 -0.178723 -0.226374 0.0648738 -0.183187 
-0.209226 -0.0147714 -0.193298 -0.208099 0.0179458 -0.191448 -0.209168 0.0504926 -0.184014 
-0.207545 0.0112225 -0.191176 -0.204242 0.000310416 -0.191007 -0.203572 -0.00959782 -0.19039 
-0.202625 0.00505756 -0.190299 -0.202515 -0.00457665 -0.190262 -0.20167 -0.0427805 -0.182809 
-0.200479 0.0085186 -0.1903 -0.0888094 0.0529881 -0.13068 -0.0561003 0.00452624 -0.126939 
-0.0589161 0.0131371 -0.126008 -0.0793513 0.00822779 -0.128388 -0.199898 0.000101349 -0.190208 
-0.0493362 -0.0153908 -0.126128 -0.196166 0.00610162 -0.188678 -0.0548259 0.0118903 -0.12532 
-0.19794 0.00924115 -0.188246 -0.0606653 0.0307394 -0.128889 -0.0499903 -0.00444385 -0.126752 
-0.191186 -0.0091517 -0.186383 -0.193591 -0.00639171 -0.187523 -0.197605 -0.00246097 -0.188062 
-0.190276 0.00545399 -0.186225 -0.0754178 0.00273942 -0.128611 -0.196879 -0.0333142 -0.184836 
-0.190943 -0.0314692 -0.181717 -0.186485 -0.0162894 -0.183593 -0.184935 -0.0106184 -0.183627 
-0.183183 -0.00805951 -0.183053 -0.185905 -0.00486623 -0.183183 -0.181255 0.00742558 -0.182136 
-0.187094 0.0153076 -0.183984 -0.189305 0.0188769 -0.184586 -0.189086 0.0249379 -0.183422 
-0.0804082 0.0407882 -0.134872 -0.191925 -0.0409357 -0.180656 -0.178259 -0.0226187 -0.17837 
-0.175384 -0.0125576 -0.178394 -0.174419 -0.00433504 -0.179428 -0.183899 -0.000151471 -0.183421 
-0.16829 0.000662219 -0.176974 -0.181883 0.00319295 -0.181238 -0.178815 0.00704696 -0.179914 
-0.175507 0.00605385 -0.179844 -0.192124 0.00846015 -0.182827 -0.175833 0.00936623 -0.17977 
-0.182045 0.0114207 -0.180315 -0.180702 0.0274117 -0.179381 -0.181596 0.0360601 -0.177956 
-0.191516 0.0389607 -0.181067 -0.172502 -0.0204958 -0.177263 -0.168176 -0.0156358 -0.175069 
-0.164333 -0.0142296 -0.174663 -0.173795 -0.0119825 -0.173665 -0.169371 -0.0108826 -0.177055 
-0.162353 -0.0120644 -0.174009 -0.160234 -0.00406954 -0.173526 -0.164476 -0.0024898 -0.175338 
-0.169704 0.0092726 -0.177138 -0.172658 0.0125858 -0.17693 -0.171951 0.0187424 -0.177308 
-0.168729 0.0189719 -0.174753 -0.1757 0.0315584 -0.176497 -0.174851 0.0361956 -0.175126 
-0.161159 -0.0163835 -0.173108 -0.155021 -0.0153057 -0.170626 -0.159236 -0.0129866 -0.171559 
-0.158443 -0.00919303 -0.172595 -0.157104 -0.002393 -0.172218 -0.1626 0.00229239 -0.173448 
-0.157138 0.00256837 -0.170959 -0.153913 0.0123337 -0.170289 -0.166329 0.0183321 -0.169278 
-0.1638 0.0230551 -0.171956 -0.184928 0.0257483 -0.169773 -0.162124 0.0280428 -0.171529 
-0.177296 -0.0518211 -0.170852 -0.15156 -0.0220601 -0.167817 -0.15413 -0.0215432 -0.169502 
-0.149511 -0.0151108 -0.168356 -0.162802 -0.0140766 -0.167777 -0.147829 -0.0125205 -0.1679 
-0.153589 -0.00618446 -0.169603 -0.164352 0.00202032 -0.169749 -0.151216 0.000843098 -0.169757 
-0.144709 0.00163685 -0.166956 -0.145097 0.00799332 -0.166972 -0.146004 0.0108941 -0.167239 
-0.173885 0.016259 -0.168435 -0.151571 0.0145848 -0.167775 -0.173571 0.0239331 -0.172398 
-0.15927 0.0320466 -0.169591 -0.160312 0.0362514 -0.169105 -0.151615 -0.0342453 -0.165908 
-0.147676 -0.0231244 -0.16652 -0.153944 -0.0186536 -0.167731 -0.141385 -0.018201 -0.164583 
-0.143004 -0.0139338 -0.165696 -0.156011 -0.0124595 -0.167723 -0.145925 -0.00738014 -0.166291 
-0.140428 -0.00698172 -0.165123 -0.14326 -0.00390523 -0.166429 -0.141063 0.0014614 -0.164382 
-0.143321 0.00481195 -0.166274 -0.142402 0.0107757 -0.164649 -0.138171 0.00811557 -0.162933 
-0.142412 0.015804 -0.164129 -0.151675 0.0252195 -0.166704 -0.147517 0.0294923 -0.16527 
-0.159571 0.0336574 -0.163769 -0.141739 -0.0338697 -0.161982 -0.135752 -0.0243286 -0.161363 
-0.136724 -0.0186238 -0.161524 -0.139548 -0.0142895 -0.163104 -0.131363 -0.00990317 -0.16005 
-0.148283 -0.00648274 -0.161788 -0.133531 -0.00455371 -0.162255 -0.137288 -0.000951488 -0.16073 
-0.13085 -0.00280913 -0.161183 -0.134009 0.00841727 -0.162133 -0.136127 0.0119179 -0.163007 
-0.139377 0.0201887 -0.162309 -0.138878 -0.0378427 -0.15989 -0.135793 -0.0325432 -0.158661 
[...]
POINT_DATA 684
FIELD FieldData 7
id 1 684 int
16 30 34 31 3 19 26 68 32 
2 27 108 99 7 1 22 5 33 
21 6 60 23 13 36 28 11 58 
10 142 41 38 57 92 8 79 40 
101 130 48 54 42 4 63 67 53 
46 14 44 126 88 83 49 29 59 
162 134 122 45 43 93 76 20 62 
15 50 100 87 75 104 18 85 148 
72 132 51 70 71 114 116 181 69 
17 84 35 177 163 61 52 74 109 
12 166 47 192 156 64 77 158 174 
154 37 147 39 94 96 145 65 73 
55 133 82 91 233 146 120 112 245 
125 111 138 25 150 118 95 98 81 
175 187 167 200 188 136 157 137 176 
86 110 89 196 182 244 143 222 231 
103 257 274 66 139 159 186 78 90 
227 80 198 140 124 144 128 209 153 
127 105 268 232 203 224 204 228 202 
121 135 97 113 171 170 234 246 123 
185 141 270 161 165 281 304 327 216 
265 183 201 194 215 238 178 243 191 
164 117 230 259 463 469 443 429 155 
460 239 490 262 353 453 218 211 102 
180 357 287 129 119 219 252 152 260 
131 206 271 401 290 205 214 149 302 
236 282 309 314 277 220 151 278 258 
199 275 189 251 254 208 250 284 172 
289 279 288 318 223 210 212 221 115 
106 207 190 307 160 293 184 292 299 
347 315 286 249 295 169 193 272 308 
345 310 197 300 266 342 311 325 320 
312 337 313 225 317 217 235 168 240 
333 269 305 267 256 323 301 107 365 
179 229 253 372 247 379 285 322 261 
242 348 355 321 241 316 273 331 329 
226 280 352 213 324 373 237 381 358 
328 374 248 335 297 330 349 291 380 
389 264 283 370 173 392 332 319 294 
255 413 346 303 344 371 338 326 378 
334 354 350 405 336 391 296 359 276 
376 394 388 400 341 395 298 384 396 
393 306 367 385 382 339 362 404 398 
403 351 409 412 340 415 386 375 369 
383 432 408 343 363 402 387 364 419 
397 414 446 407 410 356 441 360 377 
437 425 430 426 479 390 478 411 417 
477 406 418 452 368 428 399 450 427 
480 435 416 421 431 424 500 442 422 
434 681 675 684 686 445 366 678 687 
676 666 677 475 195 464 433 361 504 
494 524 683 513 476 685 482 472 448 
465 495 436 449 486 489 532 455 522 
457 514 487 493 517 447 423 420 526 
528 492 474 444 499 511 468 440 523 
498 519 438 506 439 466 518 525 481 
483 507 503 509 540 501 458 529 538 
462 467 470 520 485 542 491 527 497 
534 516 461 459 502 535 531 543 473 
508 484 505 454 510 521 471 530 488 
512 545 539 537 496 515 544 451 541 
550 533 553 536 263 549 555 551 546 
557 554 556 456 552 548 547 565 563 
570 558 561 560 568 567 566 559 569 
562 564 578 577 583 573 580 582 572 
571 575 576 574 581 594 579 596 593 
591 592 586 588 589 585 584 595 590 
587 602 607 608 603 601 600 604 597 
599 605 606 619 609 621 598 617 618 
614 620 615 622 616 611 613 610 630 
612 628 623 634 625 635 632 627 629 
626 633 624 631 639 637 638 645 647 
644 642 641 648 636 643 646 658 654 
640 650 659 655 660 651 656 653 649 
652 661 657 672 663 667 674 670 665 
671 669 668 673 662 682 664 680 679 

type 1 684 int
1 1 1 1 1 1 1 1 1 
1 1 1 1 1 1 1 1 1 
1 1 1 1 1 1 1 1 1 
1 1 1 1 1 1 1 1 1 
1 1 1 1 1 1 1 1 1 
1 1 1 1 1 1 1 1 1 
1 1 1 1 1 1 1 1 1 
1 1 1 1 1 1 1 1 1 
1 1 1 1 1 1 1 1 1 
1 1 1 1 1 1 1 1 1 
1 1 1 1 1 1 1 1 1 
1 1 1 1 1 1 1 1 1 
1 1 1 1 1 1 1 1 1 
1 1 1 1 1 1 1 1 1 
1 1 1 1 1 1 1 1 1 
1 1 1 1 1 1 1 1 1 
1 1 1 1 1 1 1 1 1 
1 1 1 1 1 1 1 1 1 
1 1 1 1 1 1 1 1 1 
1 1 1 1 1 1 1 1 1 
1 1 1 1 1 1 1 1 1 
1 1 1 1 1 1 1 1 1 
1 1 1 1 1 1 1 1 1 
1 1 1 1 1 1 1 1 1 
1 1 1 1 1 1 1 1 1 
1 1 1 1 1 1 1 1 1 
1 1 1 1 1 1 1 1 1 
1 1 1 1 1 1 1 1 1 
1 1 1 1 1 1 1 1 1 
1 1 1 1 1 1 1 1 1 
1 1 1 1 1 1 1 1 1 
1 1 1 1 1 1 1 1 1 
1 1 1 1 1 1 1 1 1 
1 1 1 1 1 1 1 1 1 
1 1 1 1 1 1 1 1 1 
1 1 1 1 1 1 1 1 1 
1 1 1 1 1 1 1 1 1 
1 1 1 1 1 1 1 1 1 
1 1 1 1 1 1 1 1 1 
1 1 1 1 1 1 1 1 1 
1 1 1 1 1 1 1 1 1 
1 1 1 1 1 1 1 1 1 
1 1 1 1 1 1 1 1 1 
1 1 1 1 1 1 1 1 1 
1 1 1 1 1 1 1 1 1 
1 1 1 1 1 1 1 1 1 
1 1 1 1 1 1 1 1 1 
1 1 1 1 1 1 1 1 1 
1 1 1 1 1 1 1 1 1 
1 1 1 1 1 1 1 1 1 
1 1 1 1 1 1 1 1 1 
1 1 1 1 1 1 1 1 1 
1 1 1 1 1 1 1 1 1 
1 1 1 1 1 1 1 1 1 
1 1 1 1 1 1 1 1 1 
1 1 1 1 1 1 1 1 1 
1 1 1 1 1 1 1 1 1 
1 1 1 1 1 1 1 1 1 
1 1 1 1 1 1 1 1 1 
1 1 1 1 1 1 1 1 1 
1 1 1 1 1 1 1 1 1 
1 1 1 1 1 1 1 1 1 
1 1 1 1 1 1 1 1 1 
1 1 1 1 1 1 1 1 1 
1 1 1 1 1 1 1 1 1 
1 1 1 1 1 1 1 1 1 
1 1 1 1 1 1 1 1 1 
1 1 1 1 1 1 1 1 1 
1 1 1 1 1 1 1 1 1 
1 1 1 1 1 1 1 1 1 
1 1 1 1 1 1 1 1 1 
1 1 1 1 1 1 1 1 1 
1 1 1 1 1 1 1 1 1 
1 1 1 1 1 1 1 1 1 
1 1 1 1 1 1 1 1 1 
1 1 1 1 1 1 1 1 1 

i 3 684 int
0 0 0 0 0 0 0 0 0 
0 0 0 0 0 0 0 0 0 
0 0 0 0 0 0 0 0 0 
0 0 0 0 0 0 0 0 0 
0 0 0 0 0 0 0 0 0 
0 0 0 0 0 0 0 0 0 
0 0 0 0 0 0 0 0 0 
0 0 0 0 0 0 0 0 0 
0 0 0 0 0 0 0 0 0 
0 0 0 0 0 0 0 0 0 
0 0 0 0 0 0 0 0 0 
0 0 0 0 0 0 0 0 0 
0 0 0 0 0 0 0 0 0 
0 0 0 0 0 0 0 0 0 
0 0 0 0 0 0 0 0 0 
0 0 0 0 0 0 0 0 0 
0 0 0 0 0 0 0 0 0 
0 0 0 0 0 0 0 0 0 
0 0 0 0 0 0 0 0 0 
0 0 0 0 0 0 0 0 0 
0 0 0 0 0 0 0 0 0 
0 0 0 0 0 0 0 0 0 
0 0 0 0 0 0 0 0 0 
0 0 0 0 0 0 0 0 0 
0 0 0 0 0 0 0 0 0 
0 0 0 0 0 0 0 0 0 
0 0 0 0 0 0 0 0 0 
0 0 0 0 0 0 0 0 0 
0 0 0 0 0 0 0 0 0 
0 0 0 0 0 0 0 0 0 
0 0 0 0 0 0 0 0 0 
0 0 0 0 0 0 0 0 0 
0 0 0 0 0 0 0 0 0 
0 0 0 0 0 0 0 0 0 
0 0 0 0 0 0 0 0 0 
0 0 0 0 0 0 0 0 0 
0 0 0 0 0 0 0 0 0 
0 0 0 0 0 0 0 0 0 
0 0 0 0 0 0 0 0 0 
0 0 0 0 0 0 0 0 0 
0 0 0 0 0 0 0 0 0 
0 0 0 0 0 0 0 0 0 
0 0 0 0 0 0 0 0 0 
0 0 0 0 0 0 0 0 0 
0 0 0 0 0 0 0 0 0 
0 0 0 0 0 0 0 0 0 
0 0 0 0 0 0 0 0 0 
0 0 0 0 0 0 0 0 0 
0 0 0 0 0 0 0 0 0 
0 0 0 0 0 0 0 0 0 
0 0 0 0 0 0 0 0 0 
0 0 0 0 0 0 0 0 0 
0 0 0 0 0 0 0 0 0 
0 0 0 0 0 0 0 0 0 
0 0 0 0 0 0 0 0 0 
0 0 0 0 0 0 0 0 0 
0 0 0 0 0 0 0 0 0 
0 0 0 0 0 0 0 0 0 
0 0 0 0 0 0 0 0 0 
0 0 0 0 0 0 0 0 0 
0 0 0 0 0 0 0 0 0 
0 0 0 0 0 0 0 0 0 
0 0 0 0 0 0 0 0 0 
0 0 0 0 0 0 0 0 0 
0 0 0 0 0 0 0 0 0 
0 0 0 0 0 0 0 0 0 
0 0 0 0 0 0 0 0 0 
0 0 0 0 0 0 0 0 0 
0 0 0 0 0 0 0 0 0 
0 0 0 0 0 0 0 0 0 
0 0 0 0 0 0 0 0 0 
0 0 0 0 0 0 0 0 0 
0 0 0 0 0 0 0 0 0 
0 0 0 0 0 0 0 0 0 
0 0 0 0 0 0 0 0 0 
0 0 0 0 0 0 0 0 0 
0 0 0 0 0 0 0 0 0 
0 0 0 0 0 0 0 0 0 
0 0 0 0 0 0 0 0 0 
0 0 0 0 0 0 0 0 0 
0 0 0 0 0 0 0 0 0 
0 0 0 0 0 0 0 0 0 
0 0 0 0 0 0 0 0 0 
0 0 0 0 0 0 0 0 0 
0 0 0 0 0 0 0 0 0 
0 0 0 0 0 0 0 0 0 
0 0 0 0 0 0 0 0 0 
0 0 0 0 0 0 0 0 0 
0 0 0 0 0 0 0 0 0 
0 0 0 0 0 0 0 0 0 
0 0 0 0 0 0 0 0 0 
0 0 0 0 0 0 0 0 0 
0 0 0 0 0 0 0 0 0 
0 0 0 0 0 0 0 0 0 
0 0 0 0 0 0 0 0 0 
0 0 0 0 0 0 0 0 0 
0 0 0 0 0 0 0 0 0 
0 0 0 0 0 0 0 0 0 
0 0 0 0 0 0 0 0 0 
0 0 0 0 0 0 0 0 0 
0 0 0 0 0 0 0 0 0 
0 0 0 0 0 0 0 0 0 
0 0 0 0 0 0 0 0 0 
0 0 0 0 0 0 0 0 0 
0 0 0 0 0 0 0 0 0 
0 0 0 0 0 0 0 0 0 
0 0 0 0 0 0 0 0 0 
0 0 0 0 0 0 0 0 0 
0 0 0 0 0 0 0 0 0 
0 0 0 0 0 0 0 0 0 
0 0 0 0 0 0 0 0 0 
0 0 0 0 0 0 0 0 0 
0 0 0 0 0 0 0 0 0 
0 0 0 0 0 0 0 0 0 
0 0 0 0 0 0 0 0 0 
0 0 0 0 0 0 0 0 0 
0 0 0 0 0 0 0 0 0 
0 0 0 0 0 0 0 0 0 
0 0 0 0 0 0 0 0 0 
0 0 0 0 0 0 0 0 0 
0 0 0 0 0 0 0 0 0 
0 0 0 0 0 0 0 0 0 
0 0 0 0 0 0 0 0 0 
0 0 0 0 0 0 0 0 0 
0 0 0 0 0 0 0 0 0 
0 0 0 0 0 0 0 0 0 
0 0 0 0 0 0 0 0 0 
0 0 0 0 0 0 0 0 0 
0 0 0 0 0 0 0 0 0 
0 0 0 0 0 0 0 0 0 
0 0 0 0 0 0 0 0 0 
0 0 0 0 0 0 0 0 0 
0 0 0 0 0 0 0 0 0 
0 0 0 0 0 0 0 0 0 
0 0 0 0 0 0 0 0 0 
0 0 0 0 0 0 0 0 0 
0 0 0 0 0 0 0 0 0 
0 0 0 0 0 0 0 0 0 
0 0 0 0 0 0 0 0 0 
0 0 0 0 0 0 0 0 0 
0 0 0 0 0 0 0 0 0 
0 0 0 0 0 0 0 0 0 
0 0 0 0 0 0 0 0 0 
0 0 0 0 0 0 0 0 0 
0 0 0 0 0 0 0 0 0 
0 0 0 0 0 0 0 0 0 
0 0 0 0 0 0 0 0 0 
0 0 0 0 0 0 0 0 0 
0 0 0 0 0 0 0 0 0 
0 0 0 0 0 0 0 0 0 
0 0 0 0 0 0 0 0 0 
0 0 0 0 0 0 0 0 0 
0 0 0 0 0 0 0 0 0 
0 0 0 0 0 0 0 0 0 
0 0 0 0 0 0 0 0 0 
0 0 0 0 0 0 0 0 0 
0 0 0 0 0 0 0 0 0 
0 0 0 0 0 0 0 0 0 
0 0 0 0 0 0 0 0 0 
0 0 0 0 0 0 0 0 0 
0 0 0 0 0 0 0 0 0 
0 0 0 0 0 0 0 0 0 
0 0 0 0 0 0 0 0 0 
0 0 0 0 0 0 0 0 0 
0 0 0 0 0 0 0 0 0 
0 0 0 0 0 0 0 0 0 
0 0 0 0 0 0 0 0 0 
0 0 0 0 0 0 0 0 0 
0 0 0 0 0 0 0 0 0 
0 0 0 0 0 0 0 0 0 
0 0 0 0 0 0 0 0 0 
0 0 0 0 0 0 0 0 0 
0 0 0 0 0 0 0 0 0 
0 0 0 0 0 0 0 0 0 
0 0 0 0 0 0 0 0 0 
0 0 0 0 0 0 0 0 0 
0 0 0 0 0 0 0 0 0 
0 0 0 0 0 0 0 0 0 
0 0 0 0 0 0 0 0 0 
0 0 0 0 0 0 0 0 0 
0 0 0 0 0 0 0 0 0 
0 0 0 0 0 0 0 0 0 
0 0 0 0 0 0 0 0 0 
0 0 0 0 0 0 0 0 0 
0 0 0 0 0 0 0 0 0 
0 0 0 0 0 0 0 0 0 
0 0 0 0 0 0 0 0 0 
0 0 0 0 0 0 0 0 0 
0 0 0 0 0 0 0 0 0 
0 0 0 0 0 0 0 0 0 
0 0 0 0 0 0 0 0 0 
0 0 0 0 0 0 0 0 0 
0 0 0 0 0 0 0 0 0 
0 0 0 0 0 0 0 0 0 
0 0 0 0 0 0 0 0 0 
0 0 0 0 0 0 0 0 0 
0 0 0 0 0 0 0 0 0 
0 0 0 0 0 0 0 0 0 
0 0 0 0 0 0 0 0 0 
0 0 0 0 0 0 0 0 0 
0 0 0 0 0 0 0 0 0 
0 0 0 0 0 0 0 0 0 
0 0 0 0 0 0 0 0 0 
0 0 0 0 0 0 0 0 0 
0 0 0 0 0 0 0 0 0 
0 0 0 0 0 0 0 0 0 
0 0 0 0 0 0 0 0 0 
0 0 0 0 0 0 0 0 0 
0 0 0 0 0 0 0 0 0 
0 0 0 0 0 0 0 0 0 
0 0 0 0 0 0 0 0 0 
0 0 0 0 0 0 0 0 0 
0 0 0 0 0 0 0 0 0 
0 0 0 0 0 0 0 0 0 
0 0 0 0 0 0 0 0 0 
0 0 0 0 0 0 0 0 0 
0 0 0 0 0 0 0 0 0 
0 0 0 0 0 0 0 0 0 
0 0 0 0 0 0 0 0 0 
0 0 0 0 0 0 0 0 0 
0 0 0 0 0 0 0 0 0 
0 0 0 0 0 0 0 0 0 
0 0 0 0 0 0 0 0 0 
0 0 0 0 0 0 0 0 0 
0 0 0 0 0 0 0 0 0 
0 0 0 0 0 0 0 0 0 
0 0 0 0 0 0 0 0 0 
0 0 0 0 0 0 0 0 0 

v 3 684 double
-1.38458 0.0121135 -1.77844 -1.31226 0.152563 -1.67401 -1.39956 0.0102656 -1.70451 
-1.33504 -0.0723053 -1.6862 -1.35171 0.195162 -1.57355 -1.14656 0.0761887 -1.51758 
-1.34235 -0.114898 -1.60071 -1.2104 -0.111715 -1.61903 -1.29371 0.154395 -1.45897 
-1.12274 0.0154003 -1.40129 -1.37864 0.0410424 -1.50378 -1.34684 0.255768 -1.42672 
-1.29568 0.280331 -1.40668 -1.28265 -0.0239591 -1.2983 -1.26435 0.0221371 -1.34004 
-1.14007 0.0619945 -1.27177 -1.25753 0.0630385 -1.21955 -1.18685 -0.0202596 -1.27283 
-1.27086 -0.0159577 -1.23928 -1.17123 0.0260053 -1.18066 -1.17479 0.0230187 -1.16725 
-1.20375 0.00503665 -1.11923 -1.21196 0.0390049 -1.07759 -1.08435 0.0642844 -1.06333 
-1.2302 0.00574051 -1.10189 -1.22067 0.0285474 -1.1073 -1.28551 0.102613 -1.20252 
-1.116 0.019221 -1.00735 -1.36559 -0.0590547 -1.42115 -1.24643 -0.117866 -1.08987 
-1.0323 0.152826 -1.04714 -1.22662 -0.116708 -1.02633 -1.34796 0.269572 -1.06618 
-1.22068 -0.298572 -1.05417 -1.10241 -0.0910185 -0.923618 -1.19979 -0.0555813 -0.953225 
-1.20344 -0.0768672 -0.918541 -1.37075 -0.249623 -1.01473 -1.19319 -0.0892842 -0.925855 
-1.08092 -0.0613343 -0.832202 -1.07951 0.0100131 -0.795001 -1.31844 0.0999611 -0.831218 
-0.973525 -0.054984 -0.749664 -1.27485 0.17461 -0.87952 -0.950694 -0.0282768 -0.731765 
-1.1745 -0.054974 -0.757694 -1.20031 -0.116061 -0.791666 -1.16531 -0.100774 -0.752392 
-1.19839 0.239857 -1.06287 -1.00125 -0.056749 -0.583636 -1.13593 0.0982091 -0.624885 
-1.21623 0.0824053 -0.69399 -1.16483 0.0470791 -0.685921 -1.277 -0.273313 -0.824769 
-1.07355 0.0243757 -0.571422 -0.897524 -0.017237 -0.451504 -0.927985 -0.0893705 -0.569905 
-1.0702 0.0723754 -0.531942 -1.14832 -0.0493155 -0.638731 -1.11646 -0.190801 -0.644419 
-1.22816 0.208558 -0.693666 -1.15392 0.253472 -0.616456 -1.16496 0.313566 -0.617908 
-1.16235 0.0278991 -0.523439 -1.14927 0.0317068 -0.527322 -1.08646 0.00781114 -0.476222 
-1.08106 0.0368958 -0.482583 -1.27791 -0.159827 -0.801096 -1.24862 0.224029 -0.649191 
-1.1263 -0.0230756 -0.436603 -1.05517 -0.027072 -0.447646 -1.12405 -0.115274 -0.501654 
-1.0697 -0.178245 -0.541247 -1.05213 -0.143472 -0.401202 -1.11652 0.0333942 -0.467843 
-1.13039 -0.0454364 -0.47927 -1.13314 0.0691657 -0.456145 -1.25689 0.0342867 -0.58665 
-1.00384 -0.00880831 -0.399537 -1.03437 0.0399149 -0.339479 -1.09141 0.00997551 -0.460553 
-1.0861 0.0159072 -0.459259 -0.875892 0.0830808 -0.386351 -0.837213 0.0493882 -0.354798 
-1.17626 -0.0345384 -0.498055 -1.19456 0.296769 -0.658731 -1.11309 0.060832 -0.495894 
-1.02684 -0.0385907 -0.386214 -0.924118 0.0431511 -0.393519 -0.665169 -0.000630064 -0.277278 
-0.962006 0.101968 -0.414015 -0.979653 0.0548645 -0.421144 -1.01042 0.0233381 -0.427319 
-1.09506 -0.0318158 -0.736941 -0.909382 -0.0150395 -0.383006 -1.00682 0.0546279 -0.42827 
-1.02957 0.0630463 -0.436775 -1.11008 0.101474 -0.462326 -1.0823 0.0914856 -0.451274 
-1.19014 -0.100891 -0.508482 -1.10645 -0.0511702 -0.460471 -1.08162 -0.0111279 -0.430468 
-1.0291 0.00636256 -0.432139 -0.939291 0.0626945 -0.403942 -0.966359 0.0669401 -0.41138 
-0.956124 -0.0484631 -0.398627 -0.970241 -0.0246094 -0.402013 -0.91397 -0.00354027 -0.378372 
-0.967786 -0.121387 -0.359094 -0.852737 0.0226782 -0.350656 -0.956161 0.0732679 -0.396211 
-0.922372 0.0170329 -0.394849 -0.761081 -0.0707632 -0.336021 -0.953433 0.170204 -0.279823 
-1.17273 0.163041 -0.528754 -0.8205 -0.0322118 -0.33788 -1.22791 0.0224827 -0.534487 
-0.710939 -0.0173127 -0.299668 -0.95158 0.112856 -0.410215 -1.0999 -0.159601 -0.44161 
-1.01067 0.0118374 -0.429729 -0.948449 -0.0388713 -0.398965 -1.06008 -0.0344342 -0.453428 
-1.07126 -0.0423109 -0.463241 -1.13579 -0.125144 -0.484524 -1.08148 0.334176 -0.67895 
-0.784853 0.0290356 -0.271764 -0.810723 -0.0518929 -0.336297 -0.992768 0.13013 -0.474678 
-1.05188 -0.13292 -0.423183 -0.955724 0.175348 -0.545659 -1.0052 -0.071006 -0.431222 
-1.12947 -0.0790981 -0.476233 -1.04401 0.261784 -0.47905 -1.02007 0.0547488 -0.460255 
-0.890176 0.245562 -0.416546 -1.10259 0.106004 -0.436954 -1.01149 0.0154798 -0.380973 
-0.952789 0.159632 -0.415927 -1.04157 0.0241443 -0.439979 -1.03735 0.164862 -0.434723 
-0.908012 -0.00957055 -0.407413 -1.1366 -0.0416174 -0.482882 -1.11703 -0.0821103 -0.476399 
-0.831998 -0.0824634 -0.409996 -0.87489 0.193311 -0.427344 -1.0301 -0.0612857 -0.444872 
-0.972205 -0.0596537 -0.415781 -1.01917 -0.0184687 -0.403489 -1.08294 0.00263341 -0.424036 
-0.889516 0.00546627 -0.369493 -0.905563 -0.00764043 -0.37488 -0.900798 0.0264649 -0.398425 
-0.84062 0.00167487 -0.357475 -1.0404 -0.0388835 -0.436482 -0.794035 0.0923358 -0.310224 
-0.894997 -0.010228 -0.370552 -1.02415 -0.268212 -0.576607 -0.805966 -0.121962 -0.334002 
-0.885475 -0.0519531 -0.362699 -0.867042 0.0217966 -0.356602 -0.775925 -0.02555 -0.323245 
-0.929843 -0.0396172 -0.387622 -1.00879 0.0148057 -0.423877 -1.11953 -0.145629 -0.394849 
-0.909691 -0.0993085 -0.364369 -0.997842 -0.147229 -0.435758 -0.767124 -0.0337619 -0.314795 
-0.859813 -0.0513145 -0.414194 -0.904615 0.0675011 -0.381305 -0.834308 0.0658937 -0.356622 
-0.876352 -0.00782372 -0.364906 -0.899591 0.0856108 -0.373721 -0.833995 0.00272774 -0.355724 
-0.910828 -0.171307 -0.432 -0.942255 -0.0160329 -0.522597 -0.903186 -0.0296036 -0.380652 
-1.21758 0.317365 -0.700022 -1.08951 0.184229 -0.598409 -0.788967 -0.0735597 -0.33698 
-0.753938 -0.0224515 -0.313697 -0.804997 0.0102861 -0.338253 -1.08769 0.00294689 -0.516798 
-0.855571 -0.0350298 -0.370409 -0.916966 0.0314571 -0.37432 -1.15942 0.198165 -0.514183 
-1.4231 -0.13074 -0.814322 -1.02611 0.170517 -0.835355 -1.07736 -0.218792 -0.523106 
-0.759332 -0.158607 -0.370055 -0.802401 -0.103946 -0.356608 -1.013 -0.327143 -0.586927 
-0.938814 -0.0468418 -0.406304 -0.8665 -0.114548 -0.381207 -1.06725 -0.0450994 -0.404887 
-0.894232 0.0638277 -0.351821 -0.72715 -0.0186771 -0.300698 -0.905432 -0.0247981 -0.37194 
-0.809802 0.0161189 -0.337571 -0.813633 -0.0741966 -0.348567 -0.83875 0.0519261 -0.377804 
-0.755227 0.00700697 -0.324438 -0.912858 0.295066 -0.573364 -0.575388 0.18928 -0.458555 
-0.6665 -0.143437 -0.324035 -0.739565 0.117709 -0.589335 -0.769023 0.0156256 -0.326904 
-0.609796 0.109927 -0.277353 -0.602786 -0.0581639 -0.250646 -0.869939 -0.0284426 -0.3088 
-0.790484 -0.0292148 -0.372213 -0.405788 -0.0641227 -0.17413 -0.516423 0.270664 -0.1477 
-0.788702 -0.0175002 -0.323545 -0.800795 -0.0911113 -0.333661 -0.837097 -0.101855 -0.335489 
-0.880026 0.000281689 -0.366036 -0.56407 0.0278654 -0.536313 -0.946865 -0.120409 -0.357023 
-0.768842 0.0840711 -0.345234 -0.767214 0.289178 -0.351178 -0.686028 -0.0259927 -0.28016 
-0.774694 0.036037 -0.332665 -0.833144 -0.0144365 -0.357276 -0.674414 -0.0119184 -0.283797 
-0.847774 -0.00346571 -0.354062 -0.829119 0.0182535 -0.344326 -0.700313 -0.00960963 -0.288354 
-0.789671 0.0405764 -0.156956 -1.05074 -0.043276 -0.421593 -0.874163 -0.0615425 -0.351636 
-0.678646 -0.0828367 -0.281648 -0.72564 0.0243693 -0.299035 -0.801595 -0.0245065 -0.285534 
-0.582667 0.0724351 -0.241624 -0.904368 -0.106949 -0.329377 -0.848359 0.0481876 -0.405824 
-0.776559 -0.0272241 -0.34783 -1.25017 0.0617535 -0.570013 -0.86916 -0.090263 -0.377086 
-0.934128 0.0855009 -0.269254 -0.83947 0.050936 -0.323443 -0.890147 0.127647 -0.326233 
-0.861511 -0.0998646 -0.388505 -0.860372 -0.074809 -0.368915 -0.735328 -0.0564868 -0.300747 
-0.730163 0.030677 -0.295825 -0.694308 -0.0741074 -0.290421 -0.683769 0.0211228 -0.293669 
-0.735115 0.0140479 -0.306067 -0.655311 0.0179933 -0.269422 -0.595854 0.0282884 -0.258008 
-0.69027 0.0650801 -0.296565 -0.877048 0.111897 -0.565651 -0.862647 0.152599 -0.358986 
-0.83442 0.0788908 -0.337061 -1.03675 0.220632 -0.383752 -0.906167 -0.0405906 -0.387502 
-0.792871 -0.0342372 -0.332843 -0.690455 -0.0343043 -0.287326 -0.721272 -0.0680657 -0.288037 
-0.619821 -0.0767103 -0.260806 -0.706558 -0.0456381 -0.291271 -0.799 -0.074341 -0.345615 
-0.663693 0.0222882 -0.273799 -0.678169 -0.0128806 -0.281151 -1.04962 -0.0645066 -0.189052 
-0.811109 0.104786 -0.222794 -1.05368 0.0855229 -0.11698 -0.844187 0.0481817 -0.339329 
-1.09103 -0.033067 -0.473327 -0.696783 -0.016035 -0.191326 -0.705699 -0.136444 -0.270816 
-0.71789 -0.00578844 -0.306127 -1.11278 -0.076165 -0.379232 -0.721739 0.00432884 -0.308797 
-0.764785 0.00494985 -0.328352 -1.02161 0.166315 -0.583256 -0.779796 0.0291805 -0.320802 
-0.589754 0.0347526 -0.249896 -0.628626 0.0241202 -0.271932 -0.641719 0.0245127 -0.258664 
-0.939632 0.16724 -0.468342 -0.703043 0.036501 -0.239247 -0.982782 0.130554 -0.745531 
-0.736972 0.00113278 -0.304018 -0.785872 0.0235309 -0.31794 -0.783368 -0.162009 -0.281944 
-0.717589 -0.0925544 -0.287033 -1.14113 0.145033 -0.463029 -0.676977 -0.0295818 -0.277466 
-0.730405 0.0167678 -0.314562 -0.792257 -0.0130251 -0.594231 -0.711556 -0.00287208 -0.316175 
-0.72683 0.0175237 -0.311778 -0.680021 -0.0022139 -0.291043 -0.682141 -0.0200918 -0.28111 
-0.628664 0.0737106 -0.272017 -0.596125 0.0304093 -0.25803 -0.615957 -0.0475009 -0.254041 
-0.605959 0.028634 -0.244591 -0.789039 0.0616951 -0.307277 -0.718791 -0.0722314 -0.324097 
-0.805306 0.00941371 -0.294059 -0.7601 0.32042 -0.393758 -0.711808 -0.115981 -0.286279 
-0.618395 0.0316038 -0.268214 -0.747056 -0.02642 -0.306768 -0.606644 -0.0532841 -0.255666 
-1.18726 0.0556993 -0.21773 -0.645032 -0.0352219 -0.267188 -0.629458 -0.0237115 -0.345626 
-0.633425 -0.0302262 -0.262482 -0.576966 0.0862698 -0.254351 -0.771905 -0.109299 -0.34037 
-0.625997 0.0855531 -0.259928 -0.868535 -0.123856 -0.331793 -0.88465 0.0147389 -0.393042 
-0.646116 0.0828902 -0.149487 -0.558401 -0.0592497 -0.285955 -0.623605 0.054828 -0.254986 
-0.504631 -0.0202838 -0.211524 -0.552491 -0.0225163 -0.232634 -0.597955 -0.061754 -0.254754 
-0.629723 -0.0679452 -0.269491 -0.718518 -0.12733 -0.313783 -0.652549 0.0433326 -0.259429 
-0.745804 -0.0574491 -0.32229 -0.802946 -0.0934327 -0.343586 -0.750235 0.128789 -0.393591 
-0.551777 0.00453681 -0.232995 -0.842871 -0.175915 -0.0710589 -0.85881 -0.155732 -0.509295 
-0.589381 -0.049954 -0.246174 -0.572165 -0.0522899 -0.238624 -0.523012 -0.0363988 -0.213033 
-0.534721 0.0204953 -0.224787 -0.721216 -0.0649113 -0.41827 -0.610586 -0.0242012 -0.230606 
-0.647854 -0.00920127 -0.341501 -0.535518 -0.0709385 -0.229095 -0.721419 0.0669094 -0.343772 
-0.762279 0.100092 -0.314939 -0.696494 0.101109 -0.283038 -0.802975 -0.146627 -0.173141 
-0.793352 0.178311 -0.306717 -0.588775 -0.0097509 -0.310843 -0.704826 0.154638 -0.191548 
-0.777363 -0.0578103 -0.335619 -0.763905 -0.0266348 -0.321656 -0.612404 0.0455322 -0.233605 
-0.69129 0.119112 -0.317983 -0.947554 0.189495 -0.365105 -1.1472 -0.169939 -0.623847 
-0.747471 -0.0790231 -0.30849 -0.947523 0.0319526 -0.441317 -0.560245 -0.0149727 -0.234036 
-0.639219 -0.0430424 -0.272847 -0.59734 0.0708767 -0.252535 -1.09253 -0.275826 -0.406777 
-0.666334 0.052791 -0.274605 -0.729015 -0.101493 -0.312545 -0.718976 -0.0545384 -0.286061 
-0.764287 -0.0233002 -0.31478 -0.698186 -0.114486 -0.281401 -0.88823 0.107322 -0.535837 
-0.617678 0.0728479 -0.385913 -0.689297 -0.0190259 -0.402319 -0.507564 0.0614114 -0.216001 
-0.843633 -0.223266 -0.745907 -0.706461 -0.0484032 -0.298656 -0.806116 -0.0376198 -0.0797035 
-0.836795 0.326922 -0.36131 -0.874535 -0.0669522 -0.328851 -0.576189 -0.101954 -0.299462 
-0.501141 0.0535007 -0.205127 -0.704511 -0.0696942 -0.182213 -0.863763 0.134388 -0.201426 
-0.7543 -0.11178 -0.776228 -0.692628 0.0521041 -0.694685 -0.743708 0.172859 -0.286982 