# vtk DataFile Version 4.0
Generated by LIGGGHTS
ASCII
DATASET POLYDATA
POINTS 596 float
-0.459369 -0.00466213 -0.337919 -0.419755 -0.0150488 -0.303095 -0.456244 0.0482176 -0.284234 
-0.389803 -0.000398744 -0.279603 -0.37411 -0.00987986 -0.269659 -0.39118 -0.045429 -0.26596 
-0.378165 0.0360362 -0.264869 -0.356759 -0.00700672 -0.260231 -0.359352 0.0101122 -0.259671 
-0.345263 0.00720587 -0.252882 -0.363871 0.0371043 -0.253994 -0.363444 0.0448239 -0.251623 
-0.342485 -0.0367366 -0.243723 -0.326752 -0.00859403 -0.243366 -0.319991 0.00551116 -0.240724 
-0.321211 0.00864487 -0.24104 -0.322814 0.0147283 -0.239999 -0.326698 0.0225859 -0.240126 
-0.320706 -0.0253915 -0.237986 -0.314909 -0.00808788 -0.238558 -0.310719 -0.00696914 -0.236913 
-0.33938 0.011183 -0.239422 -0.317005 0.0152333 -0.238569 -0.337182 -0.0463681 -0.235908 
-0.302743 -0.0148175 -0.232719 -0.30035 -0.000166066 -0.232777 -0.307252 0.0067187 -0.235282 
-0.324563 0.0407063 -0.232887 -0.319396 -0.0388384 -0.232784 -0.305994 0.0259494 -0.230786 
-0.308671 0.0302738 -0.231646 -0.296724 -0.0190866 -0.228407 -0.292202 0.00963335 -0.228748 
-0.298214 0.0241979 -0.227879 -0.312137 -0.0502792 -0.224115 -0.28696 -0.0245718 -0.223303 
-0.28126 0.00241233 -0.223511 -0.275469 0.00350764 -0.222108 -0.286616 0.00729269 -0.225455 
-0.281311 0.00768426 -0.223203 -0.283783 0.02824 -0.222086 -0.268554 -0.0122917 -0.218655 
-0.288247 0.0356044 -0.221607 -0.266081 -0.0185736 -0.215738 -0.258951 -0.0102472 -0.214863 
-0.278249 -0.00493134 -0.219191 -0.261054 -0.00159037 -0.215085 -0.266563 0.00413326 -0.218311 
-0.265384 0.00712339 -0.217671 -0.267797 0.0122826 -0.217305 -0.2672 0.0163672 -0.217372 
-0.275234 0.0289963 -0.217107 -0.2604 -0.0194682 -0.214272 -0.250539 -0.00244498 -0.211714 
-0.255747 0.00192379 -0.213841 -0.257242 0.0214754 -0.212543 -0.262991 0.0278639 -0.213547 
-0.257287 0.0253129 -0.21188 -0.264232 -0.0333957 -0.211431 -0.253844 -0.0344063 -0.208066 
-0.247918 -0.0128699 -0.208767 -0.247485 -0.00823723 -0.21015 -0.243504 -0.0080562 -0.208484 
-0.27877 -0.000231513 -0.208947 -0.249223 0.00112959 -0.211107 -0.243986 0.00738127 -0.208656 
-0.245504 0.0182947 -0.208101 -0.265218 0.0448986 -0.208681 -0.254149 -0.0385733 -0.205562 
-0.246081 -0.0311592 -0.205621 -0.260289 -0.011626 -0.205229 -0.237293 -0.0121744 -0.204342 
-0.269773 -0.00624365 -0.208198 -0.256505 -0.000715152 -0.208543 -0.236432 0.00575175 -0.204452 
-0.261202 0.0496856 -0.205097 -0.24547 -0.0395856 -0.201889 -0.232546 -0.00983893 -0.203595 
-0.228854 -0.00770077 -0.202229 -0.226527 -0.0102796 -0.201048 -0.237462 -0.000228079 -0.203998 
-0.231512 0.00911452 -0.203374 -0.238209 0.0291086 -0.201819 -0.300996 -0.0713305 -0.200387 
-0.224174 -0.0206958 -0.197811 -0.223854 -0.00945539 -0.199979 -0.22072 -0.00980914 -0.197526 
-0.225964 -0.00565524 -0.200103 -0.215751 -0.00406625 -0.196672 -0.219698 -0.00336843 -0.197611 
-0.217427 0.00805611 -0.197513 -0.228372 0.0201995 -0.197952 -0.220231 -0.0350505 -0.194148 
-0.222539 -0.0280136 -0.195535 -0.216839 -0.0275983 -0.194388 -0.218772 -0.0214643 -0.196514 
-0.216862 -0.0183158 -0.196202 -0.215054 -0.0200466 -0.194444 -0.212185 -0.0191608 -0.19393 
-0.215632 -0.0146206 -0.196061 -0.212688 -0.0137835 -0.194875 -0.215419 -0.0106019 -0.196341 
-0.219124 -0.00672643 -0.195525 -0.21464 -0.0071583 -0.194244 -0.212954 -0.00208602 -0.195773 
-0.212289 0.0012662 -0.19545 -0.209008 0.00449989 -0.194039 -0.213883 0.00719118 -0.19467 
-0.210738 0.00964603 -0.194563 -0.222643 0.0231035 -0.196818 -0.212306 0.0227069 -0.193659 
-0.211649 -0.0155688 -0.190005 -0.209006 0.000642644 -0.192956 -0.204179 0.0151456 -0.191167 
-0.207637 0.0181062 -0.191235 -0.224739 0.0263284 -0.190681 -0.228673 -0.0613287 -0.186238 
-0.220358 -0.0696548 -0.177638 -0.203101 0.0114193 -0.19111 -0.203916 0.0202817 -0.190474 
-0.201571 0.0291433 -0.187766 -0.200522 0.0115017 -0.189581 -0.0568061 0.0280925 -0.127678 
-0.200214 -0.0151482 -0.189505 -0.196971 -0.0157301 -0.186959 -0.196246 0.0035804 -0.188695 
-0.191017 0.00674246 -0.186449 -0.0469445 0.00285169 -0.125721 -0.19479 0.0139188 -0.187386 
-0.19975 0.014692 -0.189361 -0.0588685 0.0210059 -0.128404 -0.0470879 0.00941557 -0.125363 
-0.198642 -0.0351417 -0.185126 -0.193394 -0.0313193 -0.182785 -0.188872 -0.0208575 -0.184034 
-0.193679 -0.0181191 -0.186348 -0.18471 -0.00636724 -0.183734 -0.188436 -0.00298611 -0.185382 
-0.190031 0.00126913 -0.186025 -0.192456 0.0260018 -0.184589 -0.184129 -0.0303319 -0.180225 
-0.181261 -0.0121625 -0.180841 -0.18827 -0.0094331 -0.181924 -0.177692 -0.00797105 -0.180718 
-0.176347 -0.00457323 -0.179071 -0.1783 0.00781821 -0.18095 -0.179869 0.0110642 -0.18132 
-0.182582 0.0171114 -0.181482 -0.18739 0.035693 -0.179331 -0.194945 0.042018 -0.180326 
-0.193788 -0.0491481 -0.178572 -0.187107 -0.0454416 -0.177103 -0.183318 -0.0335681 -0.179191 
-0.185179 -0.00835872 -0.178148 -0.165805 -0.00807445 -0.175765 -0.169708 -0.00488775 -0.176401 
-0.170705 0.00484801 -0.176887 -0.175812 0.0146162 -0.179055 -0.175397 0.0199681 -0.177569 
-0.180899 0.0291371 -0.179141 -0.169396 -0.0319556 -0.17387 -0.163177 -0.00457303 -0.173682 
-0.166952 0.000339527 -0.175328 -0.157664 0.00327387 -0.172396 -0.160181 0.00532799 -0.173493 
-0.175066 0.00829414 -0.175131 -0.161814 0.00972092 -0.172419 -0.163963 0.0124345 -0.174534 
-0.166873 0.0152462 -0.17443 -0.167102 0.0213826 -0.173799 -0.15613 -0.0228257 -0.169078 
-0.15915 -0.0111675 -0.171665 -0.178664 -0.00636438 -0.172438 -0.149022 -0.00706576 -0.168694 
-0.162374 -0.00361188 -0.169867 -0.158263 -0.00231623 -0.17161 -0.155255 0.00156529 -0.171409 
-0.155147 0.00456736 -0.171327 -0.151359 0.00400918 -0.168696 -0.160231 0.0343863 -0.169544 
-0.199473 0.069631 -0.169693 -0.177766 -0.0257207 -0.169327 -0.145513 -0.0196805 -0.166168 
-0.148228 -0.0128107 -0.166951 -0.144659 -0.00951053 -0.166761 -0.14492 -0.00238877 -0.1661 
-0.143597 0.00275573 -0.166453 -0.14498 0.00648748 -0.165872 -0.142877 0.022339 -0.164643 
-0.14946 0.0254231 -0.166661 -0.15326 -0.0394094 -0.164127 -0.159057 -0.0149656 -0.164293 
-0.153999 -0.00770746 -0.16473 -0.146587 -0.00946453 -0.163904 -0.141199 -0.00803526 -0.164316 
-0.135438 -0.00509186 -0.163005 -0.168457 -0.00237772 -0.163281 -0.146715 0.00112679 -0.162559 
-0.142131 0.000744729 -0.161821 -0.15071 0.00805555 -0.163466 -0.13984 0.00338259 -0.163806 
-0.142113 0.0151713 -0.164077 -0.133518 0.0159296 -0.161475 -0.146124 0.0247475 -0.162234 
-0.160087 0.0508079 -0.164424 -0.143834 -0.0416924 -0.159669 -0.133717 -0.0351811 -0.158342 
-0.139025 -0.0341794 -0.159657 -0.131873 -0.0205249 -0.160246 -0.134781 -0.00759763 -0.159978 
-0.126063 -0.0104623 -0.158828 -0.123465 -0.00840152 -0.157869 -0.125166 -0.0057699 -0.158751 
-0.138902 -0.0027014 -0.160091 -0.129559 -0.00350667 -0.159549 -0.122916 -0.0028296 -0.157855 
-0.130899 0.00453298 -0.161094 -0.12928 0.00751522 -0.160263 -0.129797 0.0139945 -0.160137 
-0.154051 0.0607194 -0.157746 -0.118343 -0.0102803 -0.154498 -0.129379 -0.00552567 -0.156019 
-0.121671 -0.00572508 -0.155362 -0.136814 0.0095283 -0.157274 -0.151971 0.0141117 -0.154528 
-0.116793 0.0125904 -0.154739 -0.138839 0.0186568 -0.158103 -0.128584 0.0214976 -0.158669 
-0.121161 0.0224842 -0.15538 -0.132317 0.0414943 -0.15619 -0.134156 0.0467585 -0.155215 
-0.159021 0.0656078 -0.155922 -0.118138 -0.0327564 -0.152404 -0.118968 -0.0155424 -0.154378 
-0.114234 -0.0127577 -0.152782 -0.113073 -0.00707339 -0.153569 -0.110054 -0.00448051 -0.150801 
-0.127302 -0.00273584 -0.154871 -0.117371 -0.00299251 -0.153537 -0.111337 -0.00010413 -0.152953 
-0.117993 0.00153835 -0.153982 -0.111218 0.0081562 -0.152707 -0.108233 0.0160775 -0.15087 
-0.128807 0.0194463 -0.155309 -0.118203 0.0196835 -0.153338 -0.10439 -0.0193378 -0.148827 
-0.110179 -0.0147867 -0.151437 -0.10632 -0.0167391 -0.150044 -0.103902 -0.0142068 -0.149242 
-0.100201 -0.0144326 -0.147664 -0.106842 -0.012307 -0.1506 -0.0990521 -0.0106188 -0.147412 
-0.144611 -0.0107106 -0.150474 -0.120174 -0.00511456 -0.150003 -0.10245 -0.00617681 -0.148047 
-0.116618 -0.00128345 -0.150641 -0.111779 0.000300872 -0.147657 -0.104753 -0.0012493 -0.150174 
-0.0981743 -0.00291759 -0.147424 -0.11115 0.00366764 -0.149122 -0.106692 0.00356347 -0.149893 
-0.0987883 0.00388822 -0.147623 -0.103212 0.00873441 -0.149314 -0.101972 0.0130942 -0.147374 
-0.106361 0.0185718 -0.149872 -0.104962 0.0213015 -0.148833 -0.0981898 -0.0182526 -0.146258 
-0.0961596 -0.0108086 -0.145918 -0.0944271 -0.0130504 -0.14492 -0.0923138 -0.00746135 -0.144775 
-0.109556 -0.00364199 -0.146957 -0.0972698 -0.00696264 -0.145795 -0.103516 -0.00142774 -0.145457 
-0.0921332 -0.00194576 -0.144852 -0.0893381 -0.000341722 -0.143678 -0.111204 0.0030495 -0.144434 
-0.0957393 0.00270354 -0.145235 -0.0981547 0.00758476 -0.146036 -0.0969346 0.0123656 -0.14522 
-0.0991025 0.0176562 -0.145805 -0.0994703 0.031324 -0.145016 -0.109282 0.0340145 -0.144959 
-0.107496 0.0376714 -0.146757 -0.154571 0.080972 -0.145655 -0.099874 -0.0440133 -0.141967 
-0.0900324 -0.0213539 -0.141492 -0.0900441 -0.0108372 -0.142536 -0.0899161 -0.0045854 -0.142809 
-0.107931 0.000302831 -0.14444 -0.0935872 -0.00150092 -0.142236 -0.0855361 -0.00288712 -0.141032 
-0.0814404 -0.00328562 -0.140347 -0.10049 0.00152842 -0.140836 -0.104002 0.00742334 -0.143954 
-0.0927831 0.00992038 -0.143261 -0.0855046 0.00742928 -0.141966 -0.0994816 0.0145594 -0.141252 
-0.089474 0.0162367 -0.141852 -0.102726 0.0219231 -0.144288 -0.0845518 0.0191509 -0.140606 
-0.0823597 -0.0251721 -0.13822 -0.0913336 -0.0189501 -0.137998 -0.0825514 -0.020402 -0.139563 
-0.0895526 -0.015755 -0.138231 -0.0802497 -0.00744302 -0.139665 -0.0745959 -0.0105291 -0.137132 
-0.0972912 -0.00268469 -0.14079 -0.0897713 -0.00484029 -0.138676 -0.0756513 -0.00363395 -0.137922 
-0.077712 0.00601523 -0.137531 -0.0767129 0.0133635 -0.13653 -0.0808992 0.0154722 -0.138266 
-0.080792 0.0328478 -0.136904 -0.0875273 0.0365226 -0.137745 -0.0908533 -0.0535868 -0.135409 
[...]
POINT_DATA 596
FIELD FieldData 7
id 1 596 int
56 9 24 16 30 34 31 19 3 
32 26 68 2 7 60 22 5 1 
33 6 23 27 21 108 10 13 36 
38 99 28 11 79 57 41 58 92 
54 42 40 101 48 88 8 4 49 
63 29 46 122 14 44 130 83 100 
45 43 93 72 67 20 15 50 18 
142 87 85 148 59 76 62 162 116 
53 134 51 75 104 109 69 84 132 
70 114 126 52 35 166 17 156 64 
133 71 147 39 61 74 12 112 94 
125 96 47 181 192 158 174 145 65 
73 177 37 103 77 82 154 91 163 
81 55 233 146 150 392 111 167 25 
136 339 118 95 354 404 120 176 196 
175 182 200 138 98 245 89 187 186 
90 143 157 198 140 139 137 86 110 
188 144 78 153 274 66 222 159 204 
128 185 121 227 127 97 105 80 268 
203 244 170 209 202 123 135 141 113 
124 231 171 228 194 117 155 164 271 
161 165 232 224 234 191 211 257 243 
239 270 102 178 206 215 265 230 119 
129 287 218 252 208 149 246 152 172 
180 260 131 183 189 219 214 259 327 
220 262 278 258 199 238 216 290 205 
275 250 115 236 284 207 282 160 223 
304 151 315 251 212 286 249 221 169 
281 254 193 302 277 106 168 288 190 
333 197 266 184 299 320 225 313 235 
309 217 289 247 285 279 240 269 267 
256 323 210 325 201 347 179 229 253 
314 308 241 273 293 292 305 226 342 
242 311 261 348 295 237 312 321 328 
310 272 248 329 291 280 324 294 107 
365 317 316 307 335 297 326 300 331 
318 330 283 173 213 255 355 350 374 
337 276 296 371 389 370 380 334 301 
319 332 381 303 336 379 394 322 298 
362 341 395 352 405 338 367 306 351 
345 372 587 264 590 385 375 413 409 
344 343 363 364 387 340 412 382 356 
432 396 418 423 346 357 398 349 383 
407 359 425 384 441 390 410 353 373 
360 368 408 430 361 358 393 414 416 
195 406 422 434 426 391 447 403 415 
397 453 399 442 452 376 427 437 378 
419 369 421 417 424 400 428 454 451 
446 402 438 388 439 411 401 436 443 
440 420 433 450 386 429 435 449 431 
377 366 445 448 444 263 464 460 466 
463 457 458 459 455 456 462 461 467 
465 474 472 479 469 478 477 470 480 
473 475 476 471 468 486 484 490 492 
485 481 487 493 489 488 491 483 482 
499 503 502 504 500 497 501 498 506 
496 494 505 495 509 510 512 513 518 
515 517 508 507 511 514 519 526 516 
523 530 531 524 525 528 532 529 522 
520 527 521 538 542 537 534 540 535 
543 545 539 544 550 541 533 553 536 
549 555 551 552 546 557 547 554 556 
548 565 563 558 560 568 567 566 570 
559 561 569 562 564 577 578 580 583 
582 573 572 581 571 575 576 574 579 
596 593 591 594 592 584 586 588 589 
595 585 
type 1 596 int
1 1 1 1 1 1 1 1 1 
1 1 1 1 1 1 1 1 1 
1 1 1 1 1 1 1 1 1 
1 1 1 1 1 1 1 1 1 
1 1 1 1 1 1 1 1 1 
1 1 1 1 1 1 1 1 1 
1 1 1 1 1 1 1 1 1 
1 1 1 1 1 1 1 1 1 
1 1 1 1 1 1 1 1 1 
1 1 1 1 1 1 1 1 1 
1 1 1 1 1 1 1 1 1 
1 1 1 1 1 1 1 1 1 
1 1 1 1 1 1 1 1 1 
1 1 1 1 1 1 1 1 1 
1 1 1 1 1 1 1 1 1 
1 1 1 1 1 1 1 1 1 
1 1 1 1 1 1 1 1 1 
1 1 1 1 1 1 1 1 1 
1 1 1 1 1 1 1 1 1 
1 1 1 1 1 1 1 1 1 
1 1 1 1 1 1 1 1 1 
1 1 1 1 1 1 1 1 1 
1 1 1 1 1 1 1 1 1 
1 1 1 1 1 1 1 1 1 
1 1 1 1 1 1 1 1 1 
1 1 1 1 1 1 1 1 1 
1 1 1 1 1 1 1 1 1 
1 1 1 1 1 1 1 1 1 
1 1 1 1 1 1 1 1 1 
1 1 1 1 1 1 1 1 1 
1 1 1 1 1 1 1 1 1 
1 1 1 1 1 1 1 1 1 
1 1 1 1 1 1 1 1 1 
1 1 1 1 1 1 1 1 1 
1 1 1 1 1 1 1 1 1 
1 1 1 1 1 1 1 1 1 
1 1 1 1 1 1 1 1 1 
1 1 1 1 1 1 1 1 1 
1 1 1 1 1 1 1 1 1 
1 1 1 1 1 1 1 1 1 
1 1 1 1 1 1 1 1 1 
1 1 1 1 1 1 1 1 1 
1 1 1 1 1 1 1 1 1 
1 1 1 1 1 1 1 1 1 
1 1 1 1 1 1 1 1 1 
1 1 1 1 1 1 1 1 1 
1 1 1 1 1 1 1 1 1 
1 1 1 1 1 1 1 1 1 
1 1 1 1 1 1 1 1 1 
1 1 1 1 1 1 1 1 1 
1 1 1 1 1 1 1 1 1 
1 1 1 1 1 1 1 1 1 
1 1 1 1 1 1 1 1 1 
1 1 1 1 1 1 1 1 1 
1 1 1 1 1 1 1 1 1 
1 1 1 1 1 1 1 1 1 
1 1 1 1 1 1 1 1 1 
1 1 1 1 1 1 1 1 1 
1 1 1 1 1 1 1 1 1 
1 1 1 1 1 1 1 1 1 
1 1 1 1 1 1 1 1 1 
1 1 1 1 1 1 1 1 1 
1 1 1 1 1 1 1 1 1 
1 1 1 1 1 1 1 1 1 
1 1 1 1 1 1 1 1 1 
1 1 1 1 1 1 1 1 1 
1 1 
i 3 596 int
0 0 0 0 0 0 0 0 0 
0 0 0 0 0 0 0 0 0 
0 0 0 0 0 0 0 0 0 
0 0 0 0 0 0 0 0 0 
0 0 0 0 0 0 0 0 0 
0 0 0 0 0 0 0 0 0 
0 0 0 0 0 0 0 0 0 
0 0 0 0 0 0 0 0 0 
0 0 0 0 0 0 0 0 0 
0 0 0 0 0 0 0 0 0 
0 0 0 0 0 0 0 0 0 
0 0 0 0 0 0 0 0 0 
0 0 0 0 0 0 0 0 0 
0 0 0 0 0 0 0 0 0 
0 0 0 0 0 0 0 0 0 
0 0 0 0 0 0 0 0 0 
0 0 0 0 0 0 0 0 0 
0 0 0 0 0 0 0 0 0 
0 0 0 0 0 0 0 0 0 
0 0 0 0 0 0 0 0 0 
0 0 0 0 0 0 0 0 0 
0 0 0 0 0 0 0 0 0 
0 0 0 0 0 0 0 0 0 
0 0 0 0 0 0 0 0 0 
0 0 0 0 0 0 0 0 0 
0 0 0 0 0 0 0 0 0 
0 0 0 0 0 0 0 0 0 
0 0 0 0 0 0 0 0 0 
0 0 0 0 0 0 0 0 0 
0 0 0 0 0 0 0 0 0 
0 0 0 0 0 0 0 0 0 
0 0 0 0 0 0 0 0 0 
0 0 0 0 0 0 0 0 0 
0 0 0 0 0 0 0 0 0 
0 0 0 0 0 0 0 0 0 
0 0 0 0 0 0 0 0 0 
0 0 0 0 0 0 0 0 0 
0 0 0 0 0 0 0 0 0 
0 0 0 0 0 0 0 0 0 
0 0 0 0 0 0 0 0 0 
0 0 0 0 0 0 0 0 0 
0 0 0 0 0 0 0 0 0 
0 0 0 0 0 0 0 0 0 
0 0 0 0 0 0 0 0 0 
0 0 0 0 0 0 0 0 0 
0 0 0 0 0 0 0 0 0 
0 0 0 0 0 0 0 0 0 
0 0 0 0 0 0 0 0 0 
0 0 0 0 0 0 0 0 0 
0 0 0 0 0 0 0 0 0 
0 0 0 0 0 0 0 0 0 
0 0 0 0 0 0 0 0 0 
0 0 0 0 0 0 0 0 0 
0 0 0 0 0 0 0 0 0 
0 0 0 0 0 0 0 0 0 
0 0 0 0 0 0 0 0 0 
0 0 0 0 0 0 0 0 0 
0 0 0 0 0 0 0 0 0 
0 0 0 0 0 0 0 0 0 
0 0 0 0 0 0 0 0 0 
0 0 0 0 0 0 0 0 0 
0 0 0 0 0 0 0 0 0 
0 0 0 0 0 0 0 0 0 
0 0 0 0 0 0 0 0 0 
0 0 0 0 0 0 0 0 0 
0 0 0 0 0 0 0 0 0 
0 0 0 0 0 0 0 0 0 
0 0 0 0 0 0 0 0 0 
0 0 0 0 0 0 0 0 0 
0 0 0 0 0 0 0 0 0 
0 0 0 0 0 0 0 0 0 
0 0 0 0 0 0 0 0 0 
0 0 0 0 0 0 0 0 0 
0 0 0 0 0 0 0 0 0 
0 0 0 0 0 0 0 0 0 
0 0 0 0 0 0 0 0 0 
0 0 0 0 0 0 0 0 0 
0 0 0 0 0 0 0 0 0 
0 0 0 0 0 0 0 0 0 
0 0 0 0 0 0 0 0 0 
0 0 0 0 0 0 0 0 0 
0 0 0 0 0 0 0 0 0 
0 0 0 0 0 0 0 0 0 
0 0 0 0 0 0 0 0 0 
0 0 0 0 0 0 0 0 0 
0 0 0 0 0 0 0 0 0 
0 0 0 0 0 0 0 0 0 
0 0 0 0 0 0 0 0 0 
0 0 0 0 0 0 0 0 0 
0 0 0 0 0 0 0 0 0 
0 0 0 0 0 0 0 0 0 
0 0 0 0 0 0 0 0 0 
0 0 0 0 0 0 0 0 0 
0 0 0 0 0 0 0 0 0 
0 0 0 0 0 0 0 0 0 
0 0 0 0 0 0 0 0 0 
0 0 0 0 0 0 0 0 0 
0 0 0 0 0 0 0 0 0 
0 0 0 0 0 0 0 0 0 
0 0 0 0 0 0 0 0 0 
0 0 0 0 0 0 0 0 0 
0 0 0 0 0 0 0 0 0 
0 0 0 0 0 0 0 0 0 
0 0 0 0 0 0 0 0 0 
0 0 0 0 0 0 0 0 0 
0 0 0 0 0 0 0 0 0 
0 0 0 0 0 0 0 0 0 
0 0 0 0 0 0 0 0 0 
0 0 0 0 0 0 0 0 0 
0 0 0 0 0 0 0 0 0 
0 0 0 0 0 0 0 0 0 
0 0 0 0 0 0 0 0 0 
0 0 0 0 0 0 0 0 0 
0 0 0 0 0 0 0 0 0 
0 0 0 0 0 0 0 0 0 
0 0 0 0 0 0 0 0 0 
0 0 0 0 0 0 0 0 0 
0 0 0 0 0 0 0 0 0 
0 0 0 0 0 0 0 0 0 
0 0 0 0 0 0 0 0 0 
0 0 0 0 0 0 0 0 0 
0 0 0 0 0 0 0 0 0 
0 0 0 0 0 0 0 0 0 
0 0 0 0 0 0 0 0 0 
0 0 0 0 0 0 0 0 0 
0 0 0 0 0 0 0 0 0 
0 0 0 0 0 0 0 0 0 
0 0 0 0 0 0 0 0 0 
0 0 0 0 0 0 0 0 0 
0 0 0 0 0 0 0 0 0 
0 0 0 0 0 0 0 0 0 
0 0 0 0 0 0 0 0 0 
0 0 0 0 0 0 0 0 0 
0 0 0 0 0 0 0 0 0 
0 0 0 0 0 0 0 0 0 
0 0 0 0 0 0 0 0 0 
0 0 0 0 0 0 0 0 0 
0 0 0 0 0 0 0 0 0 
0 0 0 0 0 0 0 0 0 
0 0 0 0 0 0 0 0 0 
0 0 0 0 0 0 0 0 0 
0 0 0 0 0 0 0 0 0 
0 0 0 0 0 0 0 0 0 
0 0 0 0 0 0 0 0 0 
0 0 0 0 0 0 0 0 0 
0 0 0 0 0 0 0 0 0 
0 0 0 0 0 0 0 0 0 
0 0 0 0 0 0 0 0 0 
0 0 0 0 0 0 0 0 0 
0 0 0 0 0 0 0 0 0 
0 0 0 0 0 0 0 0 0 
0 0 0 0 0 0 0 0 0 
0 0 0 0 0 0 0 0 0 
0 0 0 0 0 0 0 0 0 
0 0 0 0 0 0 0 0 0 
0 0 0 0 0 0 0 0 0 
0 0 0 0 0 0 0 0 0 
0 0 0 0 0 0 0 0 0 
0 0 0 0 0 0 0 0 0 
0 0 0 0 0 0 0 0 0 
0 0 0 0 0 0 0 0 0 
0 0 0 0 0 0 0 0 0 
0 0 0 0 0 0 0 0 0 
0 0 0 0 0 0 0 0 0 
0 0 0 0 0 0 0 0 0 
0 0 0 0 0 0 0 0 0 
0 0 0 0 0 0 0 0 0 
0 0 0 0 0 0 0 0 0 
0 0 0 0 0 0 0 0 0 
0 0 0 0 0 0 0 0 0 
0 0 0 0 0 0 0 0 0 
0 0 0 0 0 0 0 0 0 
0 0 0 0 0 0 0 0 0 
0 0 0 0 0 0 0 0 0 
0 0 0 0 0 0 0 0 0 
0 0 0 0 0 0 0 0 0 
0 0 0 0 0 0 0 0 0 
0 0 0 0 0 0 0 0 0 
0 0 0 0 0 0 0 0 0 
0 0 0 0 0 0 0 0 0 
0 0 0 0 0 0 0 0 0 
0 0 0 0 0 0 0 0 0 
0 0 0 0 0 0 0 0 0 
0 0 0 0 0 0 0 0 0 
0 0 0 0 0 0 0 0 0 
0 0 0 0 0 0 0 0 0 
0 0 0 0 0 0 0 0 0 
0 0 0 0 0 0 0 0 0 
0 0 0 0 0 0 0 0 0 
0 0 0 0 0 0 0 0 0 
0 0 0 0 0 0 0 0 0 
0 0 0 0 0 0 0 0 0 
0 0 0 0 0 0 0 0 0 
0 0 0 0 0 0 0 0 0 
0 0 0 0 0 0 0 0 0 
0 0 0 0 0 0 0 0 0 
0 0 0 0 0 0 0 0 0 
0 0 0 0 0 0 0 0 0 
0 0 0 0 0 0 
v 3 596 double
-1.56657 -0.176984 -1.53275 -1.4389 -0.122754 -1.23991 -1.20582 -0.267663 -1.38357 
-1.38458 0.0121135 -1.03288 -1.31226 0.152563 -0.928451 -1.39956 0.0102656 -0.958951 
-1.33504 -0.0723053 -0.940642 -1.14656 0.0761887 -0.772018 -1.35171 0.195162 -0.827994 
-1.29371 0.154395 -0.713409 -1.32438 -0.0834604 -0.836685 -1.29356 -0.257258 -0.958939 
-1.12274 0.0154003 -0.655734 -1.28265 -0.0239591 -0.552743 -1.17043 0.100623 -0.486955 
-1.13933 -0.0151344 -0.481163 -1.27042 0.0949482 -0.512855 -1.25259 -0.00965018 -0.553393 
-1.18685 -0.0202596 -0.52727 -1.1453 0.0252039 -0.466201 -1.18325 -0.00214905 -0.498841 
-1.37864 0.0410424 -0.758222 -1.26103 -0.0113193 -0.529723 -1.34684 0.255768 -0.681157 
-1.07399 -0.0004443 -0.42518 -1.16671 0.0428846 -0.494183 -1.05021 0.0694291 -0.438309 
-1.02963 0.156612 -0.314371 -1.29746 0.281866 -0.663286 -1.19835 0.0312822 -0.494264 
-1.1928 0.0523358 -0.46664 -1.04121 -0.122011 -0.398606 -1.16445 -0.10702 -0.498604 
-1.1999 -0.0959373 -0.515158 -1.2834 0.068368 -0.544488 -1.27709 0.236933 -0.574987 
-1.03278 -0.0417137 -0.437069 -1.11077 -0.0293917 -0.457304 -1.1155 -0.0444678 -0.472811 
-1.14748 -0.064381 -0.477332 -1.12629 -0.0287475 -0.450742 -0.945834 -0.00208563 -0.398967 
-1.16535 -0.248005 -0.540374 -1.19883 0.0459934 -0.506199 -1.0602 -0.0976251 -0.432231 
-1.15966 -0.0806927 -0.848794 -1.00111 0.0661616 -0.423213 -1.05314 -0.036692 -0.442715 
-0.96164 -0.0399865 -0.407541 -1.07914 -0.101295 -0.473734 -1.04063 -0.0638618 -0.430438 
-1.28152 -0.20117 -0.594731 -0.993392 0.240553 -0.478831 -0.891579 0.0212787 -0.373543 
-0.95264 -0.00593923 -0.398254 -1.00182 0.0145877 -0.422234 -1.09301 0.0690515 -0.436644 
-0.86027 0.111733 -0.322367 -1.19147 0.106686 -0.494652 -0.970184 0.165492 -0.508958 
-0.983759 -0.0136582 -0.406711 -0.982529 -0.0256614 -0.416214 -0.92727 -0.0666695 -0.37995 
-1.27587 -0.0387698 -0.712146 -0.920197 -0.0478593 -0.39203 -0.959455 -0.077352 -0.404711 
-0.943695 -0.0448448 -0.409191 -1.08695 -0.207795 -0.506779 -1.09953 0.0976963 -0.454367 
-1.09197 0.154445 -0.46925 -1.20953 -0.009099 -0.623493 -0.804091 -0.063313 -0.357972 
-1.12881 -0.058781 -0.559546 -1.21799 -0.0254406 -0.955758 -0.923795 0.0609752 -0.383118 
-1.17106 -0.0319319 -0.476198 -1.08987 0.0895898 -0.505757 -0.681085 -0.108589 -0.274221 
-0.901173 -0.0107627 -0.373278 -0.914989 -0.0141894 -0.393117 -0.999365 -0.13285 -0.61126 
-0.930473 0.0294073 -0.386641 -1.15897 0.0776972 -0.463199 -1.18604 0.114649 -0.501352 
-0.813289 -0.0396346 -0.320271 -0.875759 -0.0252499 -0.417453 -0.931802 -0.0508333 -0.347219 
-0.894835 -0.01046 -0.37027 -0.80879 0.09653 -0.331692 -0.864046 -0.0400814 -0.371932 
-0.803294 0.0812563 -0.332178 -1.03502 -0.193167 -0.456871 -0.956005 -0.107659 -0.37681 
-0.865614 -0.193731 -0.328145 -0.941578 -0.0463131 -0.37407 -1.03703 0.00837493 -0.424942 
-0.80885 -0.0418247 -0.341341 -0.856144 -0.109762 -0.358906 -0.865882 -0.0147091 -0.387523 
-0.745279 -0.0574765 -0.313013 -0.719923 0.0314778 -0.304061 -0.939055 -0.0272154 -0.385784 
-1.15907 -0.0586301 -0.159428 -1.06124 -0.0423119 -0.280051 -1.02931 0.0375063 -0.441411 
-0.924933 0.0506257 -0.394659 -0.878973 -0.0471006 -0.365857 -0.796689 -0.0165121 -0.379749 
-0.822138 0.0337703 -0.34296 -0.989228 0.10038 -0.395113 -0.914379 0.0205263 -0.381984 
-0.819552 -0.0464887 -0.29094 -0.939261 0.0128603 -0.407832 -0.902317 0.0113659 -0.389921 
-1.00234 -0.0410011 -0.431155 -0.907664 0.0620355 -0.309432 -1.07163 0.0983887 -0.456337 
-0.963763 0.122199 -0.429039 -0.831753 -0.0271443 -0.357567 -1.15747 0.195729 -0.427409 
-1.08972 0.111897 -0.438062 -0.806322 -0.0326317 -0.401604 -0.747573 -0.0550243 -0.310227 
-0.922439 0.0333049 -0.393167 -0.91725 0.0316429 -0.394104 -0.913158 0.0769404 -0.380163 
-0.815459 -0.0580268 -0.354357 -0.526617 0.107406 -0.22712 -0.871901 0.0241606 -0.370769 
-0.887932 0.0168621 -0.365346 -0.528103 -0.0615487 -0.286469 -0.543104 0.349922 -0.175331 
-1.0063 0.0563421 -0.422297 -0.837931 -0.0518322 -0.330253 -0.770452 0.114146 -0.316735 
-0.925498 0.0181831 -0.391598 -0.818716 -0.0028565 -0.351036 -0.946127 -0.0109733 -0.40555 
-0.857639 -0.213537 -0.499145 -0.952868 -0.0416232 -0.401313 -1.09922 0.166152 -0.485305 
-0.864306 -0.0657544 -0.349203 -1.10598 -0.163939 -0.561423 -0.614774 -0.126821 -0.227888 
-0.746566 -0.0151572 -0.255512 -0.845697 -0.0654314 -0.365027 -0.938375 -0.0492188 -0.404794 
-0.717568 0.161144 -0.255944 -0.727011 0.139274 -0.2543 -0.850923 0.141523 -0.303276 
-0.867299 0.113691 -0.378038 -0.898148 0.183646 -0.41826 -0.873173 0.127719 -0.383446 
-1.12495 -0.104795 -0.322451 -0.814401 -0.0253781 -0.355217 -0.794844 0.000628639 -0.327399 
-0.655884 -0.0335488 -0.283957 -0.905706 -0.18328 -0.38369 -0.833751 -0.113114 -0.373272 
-0.956431 0.110504 -1.11423 -0.906571 -0.114638 -0.330814 -0.728296 -0.0588084 -0.316689 
-0.758082 0.0051355 -0.328119 -0.65577 -0.0420872 -0.288428 -0.667808 0.0135096 -0.289078 
-0.943662 0.163204 -0.750585 -0.778604 0.00856719 -0.303815 -0.711678 0.0741751 -0.281183 
-0.778617 0.0405077 -0.321958 -0.858582 0.0520004 -0.351789 -0.926831 -0.266918 -0.347788 
-0.943868 -0.0387779 -0.388677 -0.964192 -0.148545 -1.08976 -0.718098 -0.0656982 -0.294878 
-0.692587 -0.107379 -0.298749 -0.668175 0.0324007 -0.305074 -0.626468 0.0330259 -0.256269 
-0.691338 0.0441021 -0.288854 -0.750727 -0.00723155 -0.325445 -0.735789 -0.0824824 -0.319396 
-0.916763 -0.049523 -0.331824 -0.963516 -0.267767 -1.08537 -0.888758 0.0995032 -0.391487 
-0.924616 0.098774 -0.405125 -0.755808 -0.0872682 -0.309471 -0.67088 -0.0356055 -0.285713 
-0.685017 -0.0322002 -0.282752 -0.710738 -0.0345383 -0.304504 -0.514711 0.0742832 -0.21318 
-0.835284 0.0249743 -0.361263 -0.740741 -0.113378 -0.295048 -0.951382 -0.234366 -0.67694 
-0.886605 -0.0945204 -0.378578 -0.961173 -0.181437 -0.558437 -0.759223 0.0253419 -0.315918 
-0.721921 0.0394395 -0.304406 -0.875759 -0.0433322 -0.708119 -0.822712 0.0671098 -0.403201 
-0.740977 0.106783 -0.125574 -1.35874 0.266662 -0.530823 -0.662824 -0.0770906 -0.275219 
-0.774397 -0.0544045 -0.324362 -0.641258 0.0625631 -0.252142 -0.802567 -0.0778633 -0.171197 
-0.820192 0.294988 -0.246363 -0.673034 -0.0826697 -0.259535 -0.7497 0.181985 -0.349912 
-0.582911 -0.018201 -0.242638 -0.772508 -0.201466 -0.305891 -0.806742 -0.000246133 -0.485189 
-0.722878 0.0145012 -0.310621 -0.571698 -0.0609377 -0.240445 -0.503046 0.052541 -0.21032 
-0.995587 -0.164014 -0.427236 -0.64774 -0.0223139 -0.268572 -0.565265 -0.0292742 -0.242551 
-0.684806 0.0206614 -0.299164 -0.601932 0.0160251 -0.257181 -0.653651 0.0426027 -0.298702 
-0.653644 0.113114 -0.207739 -0.585185 -0.0768587 -0.24243 -0.756443 -0.0948702 -0.302796 
-0.627362 -0.0539177 -0.240922 -0.899336 -0.0190136 -0.322586 -1.02611 0.170517 -0.089795 
-0.673635 0.0259429 -0.28297 -0.73148 -0.136244 -0.365879 -0.763326 0.361428 -0.732619 
-0.736134 0.226686 -0.284056 -0.694053 0.0333928 -0.270732 -0.904215 0.12108 -0.330481 
-0.922213 -0.0198055 -0.368538 -0.880492 -0.164801 -0.33281 -0.693705 -0.118556 -0.252857 
-0.672763 -0.122308 -0.318931 -0.575456 -0.101208 -0.236737 -0.551819 -0.154065 -0.424184 
-0.582632 0.0487758 -0.459847 -0.753267 -0.192071 -0.440996 -0.506702 -0.00754048 -0.215867 
-0.832952 -0.107125 -0.340025 -0.578997 -0.0628463 -0.246878 -0.671883 0.073475 -0.278814 
-1.16266 0.156754 -0.842686 -0.76641 -0.114194 -0.330442 -0.596334 -0.0792086 -0.248148 
-0.742304 -0.020421 -0.512685 -0.628119 -0.00772514 -0.263666 -0.745347 0.0717482 -0.317476 
-0.640896 -0.00277773 -0.269516 -0.608786 0.0185252 -0.256663 -0.556447 -0.0124739 -0.236371 
-0.957814 -0.0608256 -0.551832 -0.749635 -0.0899396 -0.177944 -0.546182 -0.0126136 -0.230882 
-0.745463 -0.0422829 -0.853777 -0.995843 0.121717 -0.174114 -0.649514 -0.00170709 -0.272491 
-0.527119 0.0176224 -0.220983 -0.714865 0.198937 -0.357886 -0.633486 0.0390539 -0.269266 
-0.528242 0.00398673 -0.2335 -0.555611 0.00337129 -0.232663 -0.594283 0.0828942 -0.245902 
-0.669185 0.0801711 -0.267007 -0.657887 0.124685 -0.272287 -0.685808 -0.253897 -0.255316 
-0.485802 -0.0320448 -0.320174 -0.587197 -0.0896147 -0.140081 -0.537712 -0.0076354 -0.227744 
-0.977464 0.19433 -0.206539 -0.635762 -0.0262227 -0.265461 -0.841919 0.0928 -0.477854 
-0.460882 -0.0356411 -0.15355 -0.408095 -0.00778919 -0.171259 -0.685504 0.219162 -0.350831 
-0.515944 -0.0139573 -0.227647 -0.617801 0.0511689 -0.237037 -0.631753 -0.0209172 -0.251071 
-0.597081 0.133462 -0.243214 -0.542483 0.0266073 -0.223988 -0.9126 0.102821 -0.467129 
-0.830882 0.133541 -0.840382 -0.890172 -0.0946278 -0.388024 -0.931098 -0.174723 -0.331558 
-0.586016 0.0382578 -0.243467 -0.564588 -0.0822591 -0.234961 -0.471474 -0.0575239 -0.2117 
-0.910919 0.195718 -0.737143 -0.772836 0.0165476 -0.256852 -0.467852 -0.052199 -0.197585 
-0.651921 -0.0264382 -0.277387 -0.681553 0.188019 -0.437228 -0.879926 0.263668 -0.834323 
-0.614923 -0.00374827 -0.470611 -0.363873 -0.0511455 -0.155347 -0.87959 0.0385906 -0.462164 
-0.736565 -0.0472462 -0.316554 -0.846334 0.324848 -0.446987 -0.583482 -0.0779857 -0.254152 
-0.616996 -0.191258 -0.264741 -0.845858 0.149149 -0.287066 -0.46656 0.0742739 -0.205596 
-0.687189 0.243671 -0.518263 -0.425021 -0.0785021 -0.186232 -0.380564 -0.00877777 -0.161107 
-0.787228 0.23331 -0.820263 -0.92979 0.00248893 -0.351178 -0.479171 0.0664402 -0.207015 
-0.688801 -0.255398 -0.327088 -0.566689 -0.149004 -0.207107 -0.543688 -0.0893585 -0.233053 
-0.616659 0.00779939 -0.255322 -0.502652 0.138606 -0.17188 -0.583221 0.195953 -0.295439 
-0.572729 -0.227164 -0.481688 -0.771413 -0.0698168 -0.600453 -0.650913 -0.145615 -0.269048 
-0.722121 0.16775 -0.717004 -0.579792 -0.0947767 -0.244895 -0.68948 -0.109846 -0.432395 
-0.48639 -0.173892 -0.350624 -0.610341 0.243186 -0.729256 -0.746444 -0.106814 -0.5925 
-1.12524 0.234834 -0.550578 -0.64199 -0.14222 -0.248745 -0.418924 -0.0436273 -0.181711 
-0.572262 -0.120498 -0.257942 -0.559647 0.0120569 -0.234116 -0.526276 -0.0420753 -0.197036 
-0.836046 -0.0890154 -0.365347 -0.642127 -0.121732 -0.271249 -0.625891 0.205692 -0.540323 
-0.727078 -0.147193 -0.181009 -0.314377 0.0130552 -0.132355 -0.293853 -0.0985626 -0.11603 
-0.551878 -0.0259989 -0.253835 -0.68817 0.207024 -0.303035 -0.830075 0.21263 -0.431936 
-0.820057 0.0365207 -0.309299 -0.558877 0.00225309 -0.152042 -0.920154 0.513258 -0.517403 
-0.542934 0.0630438 -0.218631 -0.730958 0.0853008 -0.288395 -0.770323 0.0959318 -0.473429 
-0.639188 0.0965885 -0.27866 -0.587198 0.00356562 -0.254178 -0.803517 0.031392 -0.417631 
-0.706354 0.0185648 -0.418029 -0.681617 -0.0361933 -0.566029 -0.565018 0.0998279 -0.240718 
-0.43767 0.13377 -0.191259 -0.849389 0.0526837 -0.596741 -0.594135 -0.0865145 0.104555 
-0.725765 0.00910057 -0.703891 -0.764451 0.0110484 -0.482879 -0.518014 0.112446 -0.52058 
-0.674555 0.082972 -0.542361 -0.655459 0.0662517 0.102863 -0.459852 0.036958 -0.194724 
-0.793361 -0.0048455 -0.47442 -0.92469 -0.126766 -0.436789 0 0 -1 
-0.648678 0.0184973 -0.386516 0 0 -1 -0.496045 -0.0693317 -0.040628 
-0.473212 -0.329348 -0.187139 -0.812098 0.00164753 -0.163817 -0.451422 0.221845 -0.194237 
-0.785715 0.083264 -0.275166 -0.40382 0.0383675 -0.195588 -0.328477 0.0756684 -0.164215 
-0.241324 -0.0267202 -0.176107 -0.198134 -0.153367 -0.0802481 -0.394408 -0.0288783 -0.474428 
-0.713808 -0.151599 -0.257266 -0.68663 -0.267056 -0.316707 -0.476439 0.114738 -0.172167 
-0.556323 0.107638 -0.121128 -0.835793 0.24325 -0.419596 -0.440919 0.369668 -0.228387 
-0.0621593 -0.218972 0.0120508 -0.805838 0.0231037 -0.150163 -0.48853 0.127049 -0.485025 
-0.49314 -0.36852 -0.0772505 -0.733544 0.106303 -0.52008 -0.549188 0.245346 -0.222287 
-0.618506 -0.143009 -0.291061 -0.696419 -0.326852 -0.458569 -0.969686 -0.5386 -0.0451016 
-0.682979 -0.0175172 -0.184434 -0.713044 -0.452665 0.100568 -0.338887 -0.14247 -0.168335 
-0.580338 -0.0887699 -0.0452814 -0.285885 0.00325222 -0.153998 -1.03786 -0.0253947 -0.330855 
-0.490604 0.34229 0.0944083 -0.209593 0.0728108 -0.181919 -0.376585 -0.0267059 -0.318889 
-0.136578 -0.127619 -1.06187 -0.116844 -0.203374 -0.0470741 -0.71468 -0.146817 -0.423191 
-0.784717 -0.283431 -0.12195 -0.736483 -0.225771 0.0251481 -0.45411 0.165845 -0.171814 
-0.309654 -0.110461 -0.0855867 -0.65589 -0.0639883 0.0363886 -0.360732 0.0175204 -0.158666 
-0.481444 0.191748 0.0209479 -0.725967 0.298908 0.0368815 -0.701984 0.28882 -0.240297 
-0.720972 0.167483 0.287051 -0.726455 0.299109 -0.146148 -0.724992 0.298507 -0.0654498 
-0.188129 -0.024008 0.0339365 -0.641748 0.123483 -0.0362371 -0.616918 -0.0953839 -0.145895 