# vtk DataFile Version 4.0
Generated by LIGGGHTS
ASCII
DATASET POLYDATA
POINTS 706 float
-0.202305 -0.0103723 -0.19087 -0.204533 0.0151278 -0.191321 -0.488823 0.0287967 -0.384457 
-0.481523 0.03081 -0.382615 -0.466829 0.000307403 -0.379549 -0.492624 0.0268357 -0.380781 
-0.469459 0.0220278 -0.366574 -0.47173 0.0151231 -0.357416 -0.450268 -0.0352582 -0.351878 
-0.466479 -0.0218144 -0.346503 -0.449887 -0.0108941 -0.341634 -0.44379 -0.0119194 -0.341466 
-0.447576 0.0233584 -0.340651 -0.434643 -0.0273364 -0.333808 -0.430661 0.0143386 -0.336591 
-0.438988 0.0137108 -0.331246 -0.444037 0.0221326 -0.332456 -0.432765 0.00797892 -0.326594 
-0.426942 -0.00551649 -0.324799 -0.426533 -0.00658404 -0.319279 -0.407158 -0.00528148 -0.320122 
-0.435536 -0.0405142 -0.313398 -0.416297 0.00363387 -0.311297 -0.411118 0.0129252 -0.31182 
-0.423872 0.026708 -0.311193 -0.425678 0.0331674 -0.312252 -0.417387 0.013113 -0.307909 
-0.423662 0.0553801 -0.307054 -0.409393 -0.0132189 -0.304922 -0.415338 0.000862162 -0.302976 
-0.409194 -0.00144595 -0.303604 -0.404564 0.00774122 -0.300012 -0.400437 0.00212372 -0.29465 
-0.401733 -0.0282235 -0.293678 -0.405258 0.00579407 -0.293898 -0.396024 0.000534023 -0.290511 
-0.397045 0.0207965 -0.28957 -0.384642 -0.00305028 -0.283927 -0.389724 -0.0102999 -0.279376 
-0.380908 0.00315218 -0.281238 -0.415683 -0.0497866 -0.278236 -0.384936 -0.0181944 -0.278258 
-0.374635 -0.0106351 -0.277118 -0.376276 -0.000669255 -0.275409 -0.380253 0.0015601 -0.276769 
-0.36744 -0.0103799 -0.273291 -0.375701 0.00779667 -0.274429 -0.380891 0.0193232 -0.273228 
-0.371239 -0.00540163 -0.269371 -0.368835 0.00338042 -0.268279 -0.366038 -0.0136326 -0.263929 
-0.365026 -0.00814387 -0.265225 -0.372032 0.0205348 -0.265297 -0.38145 0.0376626 -0.266627 
-0.367781 -0.0222264 -0.262465 -0.358553 -0.0120158 -0.260562 -0.368839 -0.0103572 -0.260596 
-0.356779 -0.00776569 -0.260209 -0.35423 0.000541164 -0.262092 -0.355514 0.00605991 -0.259873 
-0.36316 0.0187339 -0.263256 -0.3603 -0.022366 -0.257673 -0.352855 -0.0116338 -0.25572 
-0.352129 -0.0076834 -0.256981 -0.348614 -0.000786083 -0.257387 -0.347329 -0.00155255 -0.254233 
-0.346654 0.00267084 -0.254734 -0.343663 -0.0121646 -0.251523 -0.34319 0.0017483 -0.252758 
-0.346919 0.00976533 -0.254199 -0.351596 0.0216834 -0.255007 -0.356948 0.0323747 -0.252812 
-0.33641 0.0101661 -0.247026 -0.334775 0.0145 -0.246729 -0.332174 -0.0151343 -0.24502 
-0.328097 -0.00985353 -0.243877 -0.326546 -0.00705985 -0.243391 -0.332886 0.00725554 -0.246489 
-0.326443 -0.0149575 -0.241473 -0.323452 -0.0048948 -0.241127 -0.328889 0.0245256 -0.240723 
-0.339247 -0.0392773 -0.240898 -0.317931 -0.0256178 -0.236774 -0.315072 -0.0226357 -0.235219 
-0.312586 -0.011509 -0.236034 -0.308776 -0.0102082 -0.23576 -0.318292 -0.0105158 -0.238425 
-0.310347 -0.00735197 -0.236742 -0.305654 -0.0058841 -0.234816 -0.311278 -0.00181529 -0.236248 
-0.312837 0.00728484 -0.237393 -0.309981 0.00995724 -0.236229 -0.315381 0.0106583 -0.237374 
-0.320128 -0.039968 -0.232585 -0.3159 -0.034433 -0.232196 -0.303142 -0.0208108 -0.231529 
-0.302777 -0.0175329 -0.232281 -0.302929 -0.0130074 -0.232984 -0.300351 -0.0159364 -0.231609 
-0.299205 -0.00524088 -0.232117 -0.307421 0.0015823 -0.234591 -0.311945 0.0203103 -0.235466 
-0.310651 0.031036 -0.231056 -0.320449 -0.0439826 -0.230936 -0.30563 -0.023358 -0.232164 
-0.298296 -0.0192354 -0.230078 -0.295313 -0.00873014 -0.230288 -0.290505 -0.00796675 -0.228348 
-0.295922 0.00160745 -0.230827 -0.300083 0.00549596 -0.23125 -0.293685 0.00543602 -0.229642 
-0.294559 0.00949434 -0.229752 -0.291204 0.00819403 -0.228419 -0.296909 0.0128436 -0.230529 
-0.294246 0.0134316 -0.228564 -0.297464 0.0172509 -0.229994 -0.294689 0.0168398 -0.228868 
-0.301752 0.0260163 -0.230101 -0.308704 0.0377442 -0.229062 -0.29247 -0.0257521 -0.226309 
-0.288452 -0.0153898 -0.226677 -0.290716 -0.00800287 -0.223673 -0.285587 -0.00487065 -0.226124 
-0.285006 0.00874289 -0.225768 -0.290056 0.0128076 -0.227638 -0.286871 -0.0320998 -0.222154 
-0.278502 -0.017661 -0.221746 -0.277526 -0.0202036 -0.220486 -0.281207 -0.0175928 -0.223266 
-0.281643 -0.016135 -0.220512 -0.282261 -0.0141304 -0.224055 -0.273613 -0.00722768 -0.221255 
-0.277386 -0.00511456 -0.222918 -0.280936 0.000378563 -0.224589 -0.281443 0.0043169 -0.224551 
-0.28431 0.0285605 -0.222193 -0.284826 -0.0283512 -0.22107 -0.275304 -0.0228724 -0.219862 
-0.273899 -0.0179721 -0.219099 -0.267455 0.00253267 -0.218765 -0.274788 0.00619539 -0.220597 
-0.268936 0.0107767 -0.218977 -0.2804 -0.0379317 -0.217526 -0.291208 -0.022595 -0.218617 
-0.25687 0.00950636 -0.213977 -0.263529 0.0136463 -0.21528 -0.286896 0.0460477 -0.215529 
-0.293107 0.0514828 -0.216313 -0.266533 -0.0364472 -0.212479 -0.25293 -0.0122782 -0.2121 
-0.251636 -0.00598484 -0.210936 -0.256175 -0.00229708 -0.213003 -0.254026 0.0114664 -0.211627 
-0.256143 0.0178797 -0.211531 -0.260589 0.0209357 -0.212931 -0.253689 0.0289465 -0.209405 
-0.267543 0.0399917 -0.210463 -0.254984 -0.0202001 -0.209544 -0.244225 -0.0139671 -0.208202 
-0.243216 -0.00957133 -0.207169 -0.246778 -0.00532248 -0.208907 -0.242444 -0.000538135 -0.208192 
-0.238679 -0.00246046 -0.206732 -0.251567 0.00831873 -0.211283 -0.244534 0.00734955 -0.207804 
-0.25677 -0.0414918 -0.205534 -0.244754 -0.0287391 -0.205789 -0.236021 -0.0177229 -0.204362 
-0.233624 -0.0133785 -0.203768 -0.237072 -0.00553732 -0.20474 -0.239693 0.00301788 -0.205913 
-0.233045 0.00169143 -0.20317 -0.236273 0.0055085 -0.205474 -0.236231 0.0125193 -0.205031 
-0.262 0.0150121 -0.205929 -0.238351 0.0147764 -0.205629 -0.241739 0.0210999 -0.206137 
-0.228545 -0.0155787 -0.201432 -0.229265 -0.0113526 -0.202118 -0.225219 -0.00475259 -0.200949 
-0.248078 -0.000621833 -0.203369 -0.224862 0.000762183 -0.200776 -0.225572 0.00631357 -0.199864 
-0.265294 0.00706198 -0.207523 -0.228255 0.0245146 -0.199948 -0.250408 0.0303517 -0.207567 
-0.23518 -0.0416397 -0.19674 -0.222166 -0.0100292 -0.198106 -0.219276 -0.00581201 -0.197293 
-0.218721 -8.50592e-05 -0.197135 -0.214698 9.04501e-05 -0.196495 -0.21933 0.00534915 -0.197287 
-0.216582 0.0083815 -0.197088 -0.212954 0.00885989 -0.195499 -0.226136 0.0112987 -0.199309 
-0.22579 0.0163077 -0.199041 -0.257073 0.0516635 -0.20112 -0.216239 -0.035474 -0.19236 
-0.210092 -0.00814617 -0.19436 -0.214571 -0.00452472 -0.195409 -0.209306 0.00513386 -0.194139 
-0.215938 0.00996629 -0.193433 -0.230734 0.0493306 -0.193256 -0.236877 0.0524625 -0.194009 
-0.247201 0.0575224 -0.195139 -0.218955 -0.0412705 -0.190307 -0.209182 0.0365963 -0.189154 
-0.213439 -0.0413671 -0.189222 -0.225906 0.0587293 -0.186346 -0.207431 -0.00937616 -0.193095 
-0.206545 0.00545819 -0.191846 -0.206865 -0.029472 -0.188692 -0.206369 0.0191227 -0.191674 
-0.206001 0.0274588 -0.174075 -0.203518 0.0245221 -0.189574 -0.203089 -0.00514354 -0.190507 
-0.200727 0.0131307 -0.187662 -0.200129 0.00196566 -0.188736 -0.0500043 0.00104898 -0.126929 
-0.073004 0.00219786 -0.131536 -0.090403 -0.00303726 -0.130649 -0.0656116 0.0514006 -0.12578 
-0.198465 -0.0110032 -0.189215 -0.199194 -0.00731918 -0.189903 -0.0867141 -0.000718784 -0.12703 
-0.198778 -0.00254433 -0.18975 -0.195964 0.00687122 -0.188553 -0.0493531 -0.0140807 -0.126332 
-0.0714676 0.00526927 -0.12862 -0.0591925 0.00634226 -0.128022 -0.19621 -0.023726 -0.185686 
-0.189369 -0.00383162 -0.18577 -0.0664921 0.0116698 -0.126108 -0.191021 0.00509159 -0.186532 
-0.195403 0.00747256 -0.185659 -0.192437 0.00776217 -0.18696 -0.0461622 -0.00579146 -0.125352 
-0.197855 0.028252 -0.186381 -0.190243 -0.0218314 -0.184485 -0.183395 -0.0166257 -0.181191 
-0.189588 -0.0140548 -0.184055 -0.183556 -0.0103558 -0.183089 -0.176913 -0.00284783 -0.180494 
-0.181352 0.00232178 -0.182343 -0.183722 0.0110536 -0.182959 -0.187528 0.0128627 -0.1833 
-0.188873 0.0216904 -0.183992 -0.185062 0.0202832 -0.181571 -0.19169 0.0252951 -0.182543 
-0.196922 0.0357236 -0.184377 -0.199869 0.0382279 -0.184726 -0.193411 0.0350237 -0.183114 
-0.199693 -0.0517165 -0.179815 -0.177576 -0.0169294 -0.17985 -0.187699 -0.0132123 -0.179508 
-0.179403 -0.0135668 -0.180992 -0.177173 -0.0115424 -0.180332 -0.174375 -0.0135511 -0.177879 
-0.171197 -0.0105929 -0.177859 -0.173956 -0.00376586 -0.179245 -0.171197 -0.00301855 -0.178127 
-0.17843 0.00133688 -0.179262 -0.187119 0.00555401 -0.182317 -0.180022 0.0251509 -0.178374 
-0.179471 0.0287891 -0.178601 -0.168641 -0.024141 -0.175045 -0.185058 -0.0155999 -0.177323 
-0.176365 -0.0185024 -0.176918 -0.169321 -0.0158491 -0.176612 -0.164393 -0.0150783 -0.174625 
-0.162837 -0.0123484 -0.174188 -0.169425 -0.00606022 -0.176244 -0.170277 0.00296455 -0.176746 
-0.166611 0.00117413 -0.176052 -0.167453 0.0122161 -0.176004 -0.192678 0.0196038 -0.179763 
-0.187321 0.017042 -0.175021 -0.0894399 -0.00812535 -0.12888 -0.17448 0.0318513 -0.175935 
-0.176489 0.0363662 -0.175747 -0.16776 -0.0372045 -0.171821 -0.165495 -0.0223808 -0.173606 
-0.161887 -0.0247567 -0.172222 -0.155424 -0.0186667 -0.170384 -0.170549 -0.0121987 -0.173575 
-0.158141 -0.0134771 -0.172154 -0.160654 -0.0073765 -0.172558 -0.155497 -0.00656897 -0.171484 
-0.157405 -0.00390947 -0.17236 -0.157501 0.00269007 -0.172324 -0.156385 0.00619912 -0.171811 
-0.158249 0.00844359 -0.172535 -0.159297 0.0112635 -0.172722 -0.165597 0.0154641 -0.173825 
-0.167888 0.0262482 -0.173188 -0.162487 0.0277832 -0.171728 -0.157499 -0.0271724 -0.169919 
-0.15053 -0.0264368 -0.16716 -0.149884 -0.0182134 -0.167064 -0.154946 -0.0147139 -0.169578 
-0.172028 -0.00536875 -0.168104 -0.1469 -0.00522542 -0.167904 -0.149907 -0.00146674 -0.169195 
-0.143258 -0.00305729 -0.166278 -0.154638 0.000980559 -0.170087 -0.151064 0.00699204 -0.168495 
-0.14578 0.0100717 -0.167218 -0.154902 0.0112534 -0.169821 -0.150556 0.0116775 -0.169009 
-0.154978 0.0162547 -0.169349 -0.152425 0.0217566 -0.167687 -0.175677 0.0338456 -0.171612 
-0.156771 -0.0399793 -0.166649 -0.154017 -0.0319586 -0.166398 -0.146504 -0.0234753 -0.165963 
-0.149753 -0.0126311 -0.167523 -0.138996 -0.012256 -0.163066 -0.144007 -0.0108702 -0.165341 
[...]
POINT_DATA 706
FIELD FieldData 7
id 1 706 int
119 131 3 68 19 26 32 27 2 
108 7 99 1 33 22 21 5 60 
6 23 142 58 13 36 28 11 41 
38 10 92 57 8 40 79 130 101 
48 54 4 42 126 67 63 46 14 
53 44 59 49 29 88 83 93 75 
76 20 162 62 122 45 43 104 15 
50 134 100 87 18 85 148 72 114 
51 71 132 181 69 70 116 17 177 
163 61 52 166 47 192 84 35 64 
158 174 154 147 39 74 109 12 94 
156 77 37 91 81 120 245 96 111 
145 65 55 73 25 133 95 82 98 
233 146 112 138 167 188 150 118 137 
187 110 125 175 200 196 182 136 157 
222 176 86 89 143 244 274 231 103 
257 66 139 124 159 186 78 90 227 
105 80 198 140 203 144 204 128 246 
209 234 127 268 232 171 224 228 153 
202 121 135 270 97 113 194 170 123 
281 185 141 304 161 327 165 191 117 
243 155 164 259 262 178 215 216 287 
211 102 239 277 238 265 201 230 199 
290 183 218 180 129 206 292 271 152 
151 282 366 492 447 449 219 252 423 
302 260 361 465 466 205 149 483 314 
309 220 514 278 275 189 214 208 172 
236 289 279 288 318 342 223 258 210 
347 212 254 251 250 115 106 284 207 
190 272 184 299 286 295 337 221 249 
169 193 307 308 160 300 293 457 311 
325 320 315 312 313 317 225 217 235 
168 345 333 310 197 266 256 323 107 
365 179 229 372 247 379 285 240 305 
322 269 261 267 242 301 348 355 413 
346 241 253 297 331 226 280 352 213 
324 373 237 321 358 328 316 248 344 
273 329 349 291 380 264 370 255 381 
303 338 391 374 371 359 376 335 378 
330 326 283 389 173 332 392 319 294 
350 405 403 336 393 296 306 394 415 
341 395 354 334 388 386 276 367 400 
339 384 298 362 441 396 409 402 385 
382 414 426 369 411 404 406 398 432 
377 351 428 375 412 407 383 356 360 
425 437 408 343 387 399 364 363 479 
340 419 397 480 446 410 401 463 452 
424 430 357 427 429 390 478 417 464 
418 434 460 368 450 453 442 469 435 
443 416 431 421 353 477 422 433 476 
440 482 472 445 448 474 495 490 475 
500 513 507 195 706 486 532 701 455 
709 504 690 704 712 713 420 707 711 
444 703 702 436 705 535 489 493 468 
458 487 517 541 498 494 470 438 439 
525 524 527 710 708 503 499 511 519 
506 528 481 537 509 461 459 554 501 
555 543 522 473 523 462 467 485 526 
552 491 563 546 533 534 502 540 551 
512 545 484 454 497 518 521 471 510 
536 496 548 560 556 531 568 544 529 
550 488 565 538 508 520 505 566 539 
542 570 558 559 530 549 561 516 515 
567 562 553 547 451 569 564 557 263 
577 583 573 578 580 582 572 571 575 
576 574 456 581 594 579 593 591 592 
596 586 588 589 584 595 585 590 602 
587 603 607 608 601 600 604 597 599 
605 606 619 609 621 617 618 598 620 
615 614 616 622 610 612 611 613 630 
628 623 634 625 635 632 627 629 626 
633 624 631 637 645 644 642 641 639 
638 647 648 636 643 640 655 660 646 
658 656 654 650 653 659 651 649 652 
661 657 672 663 667 674 670 665 671 
669 666 668 673 662 682 664 680 679 
685 687 683 676 686 681 678 675 693 
684 697 677 698 688 694 691 689 699 
695 696 692 700 
type 1 706 int
1 1 1 1 1 1 1 1 1 
1 1 1 1 1 1 1 1 1 
1 1 1 1 1 1 1 1 1 
1 1 1 1 1 1 1 1 1 
1 1 1 1 1 1 1 1 1 
1 1 1 1 1 1 1 1 1 
1 1 1 1 1 1 1 1 1 
1 1 1 1 1 1 1 1 1 
1 1 1 1 1 1 1 1 1 
1 1 1 1 1 1 1 1 1 
1 1 1 1 1 1 1 1 1 
1 1 1 1 1 1 1 1 1 
1 1 1 1 1 1 1 1 1 
1 1 1 1 1 1 1 1 1 
1 1 1 1 1 1 1 1 1 
1 1 1 1 1 1 1 1 1 
1 1 1 1 1 1 1 1 1 
1 1 1 1 1 1 1 1 1 
1 1 1 1 1 1 1 1 1 
1 1 1 1 1 1 1 1 1 
1 1 1 1 1 1 1 1 1 
1 1 1 1 1 1 1 1 1 
1 1 1 1 1 1 1 1 1 
1 1 1 1 1 1 1 1 1 
1 1 1 1 1 1 1 1 1 
1 1 1 1 1 1 1 1 1 
1 1 1 1 1 1 1 1 1 
1 1 1 1 1 1 1 1 1 
1 1 1 1 1 1 1 1 1 
1 1 1 1 1 1 1 1 1 
1 1 1 1 1 1 1 1 1 
1 1 1 1 1 1 1 1 1 
1 1 1 1 1 1 1 1 1 
1 1 1 1 1 1 1 1 1 
1 1 1 1 1 1 1 1 1 
1 1 1 1 1 1 1 1 1 
1 1 1 1 1 1 1 1 1 
1 1 1 1 1 1 1 1 1 
1 1 1 1 1 1 1 1 1 
1 1 1 1 1 1 1 1 1 
1 1 1 1 1 1 1 1 1 
1 1 1 1 1 1 1 1 1 
1 1 1 1 1 1 1 1 1 
1 1 1 1 1 1 1 1 1 
1 1 1 1 1 1 1 1 1 
1 1 1 1 1 1 1 1 1 
1 1 1 1 1 1 1 1 1 
1 1 1 1 1 1 1 1 1 
1 1 1 1 1 1 1 1 1 
1 1 1 1 1 1 1 1 1 
1 1 1 1 1 1 1 1 1 
1 1 1 1 1 1 1 1 1 
1 1 1 1 1 1 1 1 1 
1 1 1 1 1 1 1 1 1 
1 1 1 1 1 1 1 1 1 
1 1 1 1 1 1 1 1 1 
1 1 1 1 1 1 1 1 1 
1 1 1 1 1 1 1 1 1 
1 1 1 1 1 1 1 1 1 
1 1 1 1 1 1 1 1 1 
1 1 1 1 1 1 1 1 1 
1 1 1 1 1 1 1 1 1 
1 1 1 1 1 1 1 1 1 
1 1 1 1 1 1 1 1 1 
1 1 1 1 1 1 1 1 1 
1 1 1 1 1 1 1 1 1 
1 1 1 1 1 1 1 1 1 
1 1 1 1 1 1 1 1 1 
1 1 1 1 1 1 1 1 1 
1 1 1 1 1 1 1 1 1 
1 1 1 1 1 1 1 1 1 
1 1 1 1 1 1 1 1 1 
1 1 1 1 1 1 1 1 1 
1 1 1 1 1 1 1 1 1 
1 1 1 1 1 1 1 1 1 
1 1 1 1 1 1 1 1 1 
1 1 1 1 1 1 1 1 1 
1 1 1 1 1 1 1 1 1 
1 1 1 1 
i 3 706 int
0 0 0 0 0 0 0 0 0 
0 0 0 0 0 0 0 0 0 
0 0 0 0 0 0 0 0 0 
0 0 0 0 0 0 0 0 0 
0 0 0 0 0 0 0 0 0 
0 0 0 0 0 0 0 0 0 
0 0 0 0 0 0 0 0 0 
0 0 0 0 0 0 0 0 0 
0 0 0 0 0 0 0 0 0 
0 0 0 0 0 0 0 0 0 
0 0 0 0 0 0 0 0 0 
0 0 0 0 0 0 0 0 0 
0 0 0 0 0 0 0 0 0 
0 0 0 0 0 0 0 0 0 
0 0 0 0 0 0 0 0 0 
0 0 0 0 0 0 0 0 0 
0 0 0 0 0 0 0 0 0 
0 0 0 0 0 0 0 0 0 
0 0 0 0 0 0 0 0 0 
0 0 0 0 0 0 0 0 0 
0 0 0 0 0 0 0 0 0 
0 0 0 0 0 0 0 0 0 
0 0 0 0 0 0 0 0 0 
0 0 0 0 0 0 0 0 0 
0 0 0 0 0 0 0 0 0 
0 0 0 0 0 0 0 0 0 
0 0 0 0 0 0 0 0 0 
0 0 0 0 0 0 0 0 0 
0 0 0 0 0 0 0 0 0 
0 0 0 0 0 0 0 0 0 
0 0 0 0 0 0 0 0 0 
0 0 0 0 0 0 0 0 0 
0 0 0 0 0 0 0 0 0 
0 0 0 0 0 0 0 0 0 
0 0 0 0 0 0 0 0 0 
0 0 0 0 0 0 0 0 0 
0 0 0 0 0 0 0 0 0 
0 0 0 0 0 0 0 0 0 
0 0 0 0 0 0 0 0 0 
0 0 0 0 0 0 0 0 0 
0 0 0 0 0 0 0 0 0 
0 0 0 0 0 0 0 0 0 
0 0 0 0 0 0 0 0 0 
0 0 0 0 0 0 0 0 0 
0 0 0 0 0 0 0 0 0 
0 0 0 0 0 0 0 0 0 
0 0 0 0 0 0 0 0 0 
0 0 0 0 0 0 0 0 0 
0 0 0 0 0 0 0 0 0 
0 0 0 0 0 0 0 0 0 
0 0 0 0 0 0 0 0 0 
0 0 0 0 0 0 0 0 0 
0 0 0 0 0 0 0 0 0 
0 0 0 0 0 0 0 0 0 
0 0 0 0 0 0 0 0 0 
0 0 0 0 0 0 0 0 0 
0 0 0 0 0 0 0 0 0 
0 0 0 0 0 0 0 0 0 
0 0 0 0 0 0 0 0 0 
0 0 0 0 0 0 0 0 0 
0 0 0 0 0 0 0 0 0 
0 0 0 0 0 0 0 0 0 
0 0 0 0 0 0 0 0 0 
0 0 0 0 0 0 0 0 0 
0 0 0 0 0 0 0 0 0 
0 0 0 0 0 0 0 0 0 
0 0 0 0 0 0 0 0 0 
0 0 0 0 0 0 0 0 0 
0 0 0 0 0 0 0 0 0 
0 0 0 0 0 0 0 0 0 
0 0 0 0 0 0 0 0 0 
0 0 0 0 0 0 0 0 0 
0 0 0 0 0 0 0 0 0 
0 0 0 0 0 0 0 0 0 
0 0 0 0 0 0 0 0 0 
0 0 0 0 0 0 0 0 0 
0 0 0 0 0 0 0 0 0 
0 0 0 0 0 0 0 0 0 
0 0 0 0 0 0 0 0 0 
0 0 0 0 0 0 0 0 0 
0 0 0 0 0 0 0 0 0 
0 0 0 0 0 0 0 0 0 
0 0 0 0 0 0 0 0 0 
0 0 0 0 0 0 0 0 0 
0 0 0 0 0 0 0 0 0 
0 0 0 0 0 0 0 0 0 
0 0 0 0 0 0 0 0 0 
0 0 0 0 0 0 0 0 0 
0 0 0 0 0 0 0 0 0 
0 0 0 0 0 0 0 0 0 
0 0 0 0 0 0 0 0 0 
0 0 0 0 0 0 0 0 0 
0 0 0 0 0 0 0 0 0 
0 0 0 0 0 0 0 0 0 
0 0 0 0 0 0 0 0 0 
0 0 0 0 0 0 0 0 0 
0 0 0 0 0 0 0 0 0 
0 0 0 0 0 0 0 0 0 
0 0 0 0 0 0 0 0 0 
0 0 0 0 0 0 0 0 0 
0 0 0 0 0 0 0 0 0 
0 0 0 0 0 0 0 0 0 
0 0 0 0 0 0 0 0 0 
0 0 0 0 0 0 0 0 0 
0 0 0 0 0 0 0 0 0 
0 0 0 0 0 0 0 0 0 
0 0 0 0 0 0 0 0 0 
0 0 0 0 0 0 0 0 0 
0 0 0 0 0 0 0 0 0 
0 0 0 0 0 0 0 0 0 
0 0 0 0 0 0 0 0 0 
0 0 0 0 0 0 0 0 0 
0 0 0 0 0 0 0 0 0 
0 0 0 0 0 0 0 0 0 
0 0 0 0 0 0 0 0 0 
0 0 0 0 0 0 0 0 0 
0 0 0 0 0 0 0 0 0 
0 0 0 0 0 0 0 0 0 
0 0 0 0 0 0 0 0 0 
0 0 0 0 0 0 0 0 0 
0 0 0 0 0 0 0 0 0 
0 0 0 0 0 0 0 0 0 
0 0 0 0 0 0 0 0 0 
0 0 0 0 0 0 0 0 0 
0 0 0 0 0 0 0 0 0 
0 0 0 0 0 0 0 0 0 
0 0 0 0 0 0 0 0 0 
0 0 0 0 0 0 0 0 0 
0 0 0 0 0 0 0 0 0 
0 0 0 0 0 0 0 0 0 
0 0 0 0 0 0 0 0 0 
0 0 0 0 0 0 0 0 0 
0 0 0 0 0 0 0 0 0 
0 0 0 0 0 0 0 0 0 
0 0 0 0 0 0 0 0 0 
0 0 0 0 0 0 0 0 0 
0 0 0 0 0 0 0 0 0 
0 0 0 0 0 0 0 0 0 
0 0 0 0 0 0 0 0 0 
0 0 0 0 0 0 0 0 0 
0 0 0 0 0 0 0 0 0 
0 0 0 0 0 0 0 0 0 
0 0 0 0 0 0 0 0 0 
0 0 0 0 0 0 0 0 0 
0 0 0 0 0 0 0 0 0 
0 0 0 0 0 0 0 0 0 
0 0 0 0 0 0 0 0 0 
0 0 0 0 0 0 0 0 0 
0 0 0 0 0 0 0 0 0 
0 0 0 0 0 0 0 0 0 
0 0 0 0 0 0 0 0 0 
0 0 0 0 0 0 0 0 0 
0 0 0 0 0 0 0 0 0 
0 0 0 0 0 0 0 0 0 
0 0 0 0 0 0 0 0 0 
0 0 0 0 0 0 0 0 0 
0 0 0 0 0 0 0 0 0 
0 0 0 0 0 0 0 0 0 
0 0 0 0 0 0 0 0 0 
0 0 0 0 0 0 0 0 0 
0 0 0 0 0 0 0 0 0 
0 0 0 0 0 0 0 0 0 
0 0 0 0 0 0 0 0 0 
0 0 0 0 0 0 0 0 0 
0 0 0 0 0 0 0 0 0 
0 0 0 0 0 0 0 0 0 
0 0 0 0 0 0 0 0 0 
0 0 0 0 0 0 0 0 0 
0 0 0 0 0 0 0 0 0 
0 0 0 0 0 0 0 0 0 
0 0 0 0 0 0 0 0 0 
0 0 0 0 0 0 0 0 0 
0 0 0 0 0 0 0 0 0 
0 0 0 0 0 0 0 0 0 
0 0 0 0 0 0 0 0 0 
0 0 0 0 0 0 0 0 0 
0 0 0 0 0 0 0 0 0 
0 0 0 0 0 0 0 0 0 
0 0 0 0 0 0 0 0 0 
0 0 0 0 0 0 0 0 0 
0 0 0 0 0 0 0 0 0 
0 0 0 0 0 0 0 0 0 
0 0 0 0 0 0 0 0 0 
0 0 0 0 0 0 0 0 0 
0 0 0 0 0 0 0 0 0 
0 0 0 0 0 0 0 0 0 
0 0 0 0 0 0 0 0 0 
0 0 0 0 0 0 0 0 0 
0 0 0 0 0 0 0 0 0 
0 0 0 0 0 0 0 0 0 
0 0 0 0 0 0 0 0 0 
0 0 0 0 0 0 0 0 0 
0 0 0 0 0 0 0 0 0 
0 0 0 0 0 0 0 0 0 
0 0 0 0 0 0 0 0 0 
0 0 0 0 0 0 0 0 0 
0 0 0 0 0 0 0 0 0 
0 0 0 0 0 0 0 0 0 
0 0 0 0 0 0 0 0 0 
0 0 0 0 0 0 0 0 0 
0 0 0 0 0 0 0 0 0 
0 0 0 0 0 0 0 0 0 
0 0 0 0 0 0 0 0 0 
0 0 0 0 0 0 0 0 0 
0 0 0 0 0 0 0 0 0 
0 0 0 0 0 0 0 0 0 
0 0 0 0 0 0 0 0 0 
0 0 0 0 0 0 0 0 0 
0 0 0 0 0 0 0 0 0 
0 0 0 0 0 0 0 0 0 
0 0 0 0 0 0 0 0 0 
0 0 0 0 0 0 0 0 0 
0 0 0 0 0 0 0 0 0 
0 0 0 0 0 0 0 0 0 
0 0 0 0 0 0 0 0 0 
0 0 0 0 0 0 0 0 0 
0 0 0 0 0 0 0 0 0 
0 0 0 0 0 0 0 0 0 
0 0 0 0 0 0 0 0 0 
0 0 0 0 0 0 0 0 0 
0 0 0 0 0 0 0 0 0 
0 0 0 0 0 0 0 0 0 
0 0 0 0 0 0 0 0 0 
0 0 0 0 0 0 0 0 0 
0 0 0 0 0 0 0 0 0 
0 0 0 0 0 0 0 0 0 
0 0 0 0 0 0 0 0 0 
0 0 0 0 0 0 0 0 0 
0 0 0 0 0 0 0 0 0 
0 0 0 0 0 0 0 0 0 
0 0 0 0 0 0 0 0 0 
0 0 0 0 0 0 0 0 0 
0 0 0 0 0 0 0 0 0 
0 0 0 0 0 0 0 0 0 
0 0 0 0 0 0 0 0 0 
0 0 0 
v 3 706 double
-0.817232 0.302906 -0.369904 -0.893478 -0.014119 -0.383942 -1.31584 0.188915 -1.78094 
-1.2104 -0.111715 -1.81523 -1.14656 0.0761887 -1.71378 -1.37822 -0.10865 -1.78572 
-1.29371 0.154395 -1.65517 -1.37864 0.0410424 -1.69998 -1.12274 0.0154003 -1.59749 
-1.34684 0.255768 -1.62292 -1.28265 -0.0239591 -1.4945 -1.29568 0.280331 -1.60288 
-1.26435 0.0221371 -1.53624 -1.18685 -0.0202596 -1.46903 -1.14007 0.0619945 -1.46797 
-1.27086 -0.0159577 -1.43548 -1.25753 0.0630385 -1.41575 -1.17479 0.0230187 -1.36345 
-1.17123 0.0260053 -1.37686 -1.20375 0.00503665 -1.31543 -1.36559 -0.0590547 -1.61735 
-1.28551 0.102613 -1.39872 -1.21196 0.0390049 -1.27379 -1.08435 0.0642844 -1.25953 
-1.2302 0.00574051 -1.29809 -1.22067 0.0285474 -1.3035 -1.24643 -0.117866 -1.28607 
-1.0323 0.152826 -1.24334 -1.116 0.019221 -1.20355 -1.34796 0.269572 -1.26238 
-1.22662 -0.116708 -1.22253 -1.22068 -0.298572 -1.25037 -1.19979 -0.0555813 -1.14943 
-1.10241 -0.0910185 -1.11982 -1.37075 -0.249623 -1.21093 -1.20344 -0.0768672 -1.11474 
-1.19319 -0.0892842 -1.12205 -1.08092 -0.0613343 -1.0284 -1.31844 0.0999611 -1.02742 
-1.07951 0.0100131 -0.991201 -1.19839 0.239857 -1.25907 -1.27485 0.17461 -1.07572 
-0.973525 -0.054984 -0.945864 -1.1745 -0.054974 -0.953894 -1.20031 -0.116061 -0.987866 
-0.950694 -0.0282768 -0.927965 -1.16531 -0.100774 -0.948592 -1.277 -0.273313 -1.02097 
-1.21623 0.0824053 -0.89019 -1.16483 0.0470791 -0.882121 -1.00125 -0.056749 -0.779836 
-1.13593 0.0982091 -0.821085 -1.11646 -0.190801 -0.840619 -1.27791 -0.159827 -0.997296 
-1.22816 0.208558 -0.889866 -1.15392 0.253472 -0.812656 -1.07355 0.0243757 -0.767622 
-1.16496 0.313566 -0.814108 -0.927985 -0.0893705 -0.766105 -1.0702 0.0723754 -0.728142 
-1.14832 -0.0493155 -0.834931 -1.24862 0.224029 -0.845391 -1.16235 0.0278991 -0.719639 
-1.14927 0.0317068 -0.723522 -0.916792 0.00792413 -0.764977 -1.06719 -0.01735 -0.555149 
-1.08106 0.0368958 -0.678783 -1.1263 -0.0230756 -0.632803 -1.05461 -0.0269159 -0.645125 
-1.12405 -0.115274 -0.697854 -1.0697 -0.178245 -0.737447 -1.25689 0.0342867 -0.78285 
-1.13458 0.0303929 -0.598548 -1.15352 0.0596096 -0.577924 -1.08618 -0.129173 -0.482998 
-1.06918 0.00527484 -0.565886 -1.09461 0.054607 -0.484432 -1.15631 -0.04943 -0.583499 
-1.04079 0.00651297 -0.454318 -1.13905 0.0219093 -0.472374 -1.21306 -0.0523629 -0.561528 
-1.2255 0.338249 -0.741837 -1.15661 0.0879847 -0.533815 -1.06763 -0.0124303 -0.431069 
-1.0285 0.0688974 -0.436441 -1.06702 0.0384859 -0.429799 -1.05153 -0.0238638 -0.498252 
-0.926188 0.0861439 -0.393535 -0.855036 0.0788944 -0.363329 -1.06016 0.0546682 -0.449313 
-1.08849 -0.0675976 -0.439931 -1.13261 0.0839369 -0.472183 -1.24615 -0.0999549 -0.530218 
-1.11494 0.0267377 -0.480678 -1.06599 0.0533529 -0.446949 -0.898692 -0.0336556 -0.402322 
-0.795435 -0.0012321 -0.387415 -0.912518 0.192287 -0.4722 -0.95011 0.113715 -0.385792 
-0.959513 -0.0109737 -0.404355 -1.03553 0.0820084 -0.43409 -1.14971 -0.0725392 -0.494103 
-0.902305 -0.017237 -0.372652 -1.13526 0.405574 -0.652979 -1.22312 0.191554 -0.564051 
-1.28846 0.0513994 -0.520084 -1.00191 0.075685 -0.429755 -0.8514 0.102302 -0.370376 
-1.00286 -0.0561753 -0.426225 -1.01707 -0.0313944 -0.431362 -0.982386 -0.13572 -0.422915 
-0.93658 -0.0246138 -0.397116 -1.02535 0.00539353 -0.43268 -0.942252 0.00954717 -0.405335 
-0.952582 -0.00850116 -0.39074 -1.07172 0.107595 -0.519805 -1.07939 -0.171756 -0.385279 
-0.826738 -0.101466 -0.365083 -0.972624 0.158793 -0.330743 -0.870125 0.000927164 -0.366853 
-1.14844 -0.146916 -0.466718 -0.991359 0.127795 -0.369931 -0.892819 0.187843 -0.38741 
-0.996851 -0.0453088 -0.421995 -1.11046 -0.0481015 -0.472381 -1.06777 0.186343 -0.483595 
-0.826362 0.0702639 -0.316267 -1.03389 -0.0872323 -0.414972 -0.834785 -0.00852014 -0.345948 
-0.871882 -0.00516884 -0.357198 -1.00829 0.0444726 -0.450376 -1.00504 0.167826 -0.432687 
-1.0913 0.0286525 -0.461981 -1.05663 -0.0774976 -0.450186 -1.1772 -0.0851017 -0.500858 
-1.19284 -0.0804834 -0.491516 -1.0355 0.15511 -0.543432 -0.93762 0.268185 -0.435922 
-0.993355 0.037095 -0.43544 -0.957936 -0.013047 -0.40783 -1.09287 0.159049 -0.438621 
-1.07824 -0.0724232 -0.454888 -1.17544 -0.0302309 -0.433943 -0.831998 -0.0824634 -0.606196 
-0.888526 0.0817104 -0.37203 -1.02061 -0.0772472 -0.443135 -1.0591 -0.0645342 -0.435813 
-1.04604 -0.321655 -0.627219 -1.12686 0.0430561 -0.441919 -0.939065 0.0193899 -0.391049 
-0.953941 -0.000768872 -0.404454 -0.955495 0.0326052 -0.403288 -0.865057 0.0652968 -0.379044 
-1.0564 -0.00176255 -0.448873 -1.08874 -0.056154 -0.459619 -0.842168 0.0620894 -0.334279 
-0.942627 -0.0589444 -0.389211 -0.997842 -0.147229 -0.631958 -0.820477 -0.0967272 -0.309423 
-0.860521 -0.050407 -0.372005 -0.932337 -0.0449086 -0.39219 -0.945004 0.016929 -0.435231 
-0.852513 0.0933858 -0.364326 -0.923493 -0.0454901 -0.177632 -0.978904 -0.0433907 -0.410956 
-1.15749 -0.102945 -0.427361 -0.965933 -0.0666417 -0.36946 -0.979342 -0.155073 -0.397937 
-0.771293 -0.000261931 -0.320035 -0.924572 0.0557244 -0.407482 -0.840552 -0.00856604 -0.359279 
-0.884411 0.0633848 -0.377065 -0.828079 0.0422611 -0.350017 -0.950114 0.0703149 -0.394792 
-1.08769 0.00294689 -0.712998 -0.88337 -0.0126811 -0.377582 -0.969528 -0.195331 -0.428675 
-0.989631 -0.0351116 -0.420458 -0.957192 -0.018685 -0.393853 -0.846034 -0.0698465 -0.345343 
-1.15942 0.198165 -0.710383 -0.800016 -0.023747 -0.344981 -0.8371 -0.0416557 -0.348198 
-1.4231 -0.13074 -1.01052 -0.904021 -0.0620693 -0.395516 -0.97903 0.0293627 -0.204952 
-0.960474 0.0700466 -0.406272 -0.954073 -0.0166328 -0.398838 -0.864602 -0.0529681 -0.353395 
-0.720913 -0.0210967 -0.30915 -0.724374 -0.00541874 -0.310365 -0.863356 0.0116802 -0.358601 
-0.830444 0.0146695 -0.371696 -0.713883 -0.0100562 -0.321051 -0.989761 -0.0332578 -0.434163 
-0.90026 -0.0324217 -0.375332 -1.10613 -0.263415 -0.585675 -0.988695 -0.0957174 -0.396053 
-0.853847 -0.0815968 -0.33963 -0.869802 -0.104321 -0.373726 -0.726191 -0.0448573 -0.342284 
-1.12391 0.0904697 -0.474943 -1.11006 -0.0843221 -0.471293 -0.791003 -0.202073 -0.435188 
-1.05727 -0.392818 -0.617767 -0.887518 0.0964467 -0.386277 -0.904264 -0.136225 -0.42248 
-1.10009 0.00036589 -0.435435 -0.832409 -0.145482 -0.406094 -0.836479 -0.00507122 -0.346951 
-0.723253 -7.60952e-05 -0.222587 -0.819997 0.113596 -0.360048 -0.874408 0.0062556 -0.371485 
-1.05368 0.0855229 -0.31318 -0.74478 -0.0326251 -0.322544 -0.883761 -0.0135758 -0.378836 
-0.934128 0.0855009 -0.465454 -0.91582 -0.0427315 -0.45103 -0.526492 -0.096791 -0.252631 
-0.519523 -0.0499368 -0.73226 -0.720972 0.167483 -0.654709 -0.526984 0.181287 -0.175089 
-0.663507 -0.0141268 -0.272809 -0.829747 0.0394601 -0.34822 -0.704359 0.245573 -0.537261 
-0.721794 -0.128746 -0.309072 -0.769198 -0.0421469 -0.333078 -0.387382 0.00390982 -0.163843 
-0.6056 -0.177785 -0.498141 -0.676222 -0.138783 -0.57227 -0.914627 -0.0508238 -0.391383 
-0.771297 0.0260318 -0.331149 -0.712597 -0.0308996 -0.583012 -0.796049 -0.0644904 -0.330679 
-0.841836 0.019205 -0.354205 -0.825783 -0.0770657 -0.360571 -0.3713 -0.0786838 -0.111532 
-0.87919 0.031322 -0.366349 -0.911365 -0.0598051 -0.369123 -0.784066 -0.0426406 -0.318661 
-0.73676 -0.0691353 -0.295546 -0.734607 0.0325511 -0.30721 -0.640008 -0.0318297 -0.266294 
-0.760394 0.102136 -0.331156 -0.725736 0.0873712 -0.294669 -0.733268 -0.00358988 -0.306349 
-0.83654 0.138391 -0.324151 -0.80244 0.0464575 -0.328398 -0.839314 0.0150621 -0.319378 
-1.09059 0.188874 -0.385608 -0.938628 0.0877981 -0.346959 -0.947983 -0.0747499 -0.406074 
-1.1336 0.0224376 -0.484439 -0.848669 -0.0202463 -0.339813 -0.694657 -0.0503472 -0.316023 
-0.777368 0.0396074 -0.326104 -0.764972 0.0313472 -0.323933 -0.781919 -0.00714588 -0.332373 
-0.660658 -0.0658615 -0.276784 -0.715658 0.0139937 -0.294788 -0.738038 0.0666197 -0.269015 
-0.774927 -0.0242091 -0.253412 -1.14463 0.177285 -0.723818 -0.811109 0.104786 -0.418994 
-0.89237 0.0254173 -0.363009 -0.751561 -0.119739 -0.280954 -1.11278 -0.076165 -0.575432 
-1.09603 -0.159683 -0.436004 -0.741404 -0.0214074 -0.31205 -0.770883 0.00840157 -0.320077 
-0.775682 0.0130125 -0.322719 -0.808217 -0.0329686 -0.296899 -0.666927 0.0222362 -0.272087 
-0.659085 -0.0334943 -0.248873 -0.692542 -0.0163898 -0.291018 -0.939632 0.16724 -0.664542 
-1.04962 -0.0645066 -0.385252 -0.727813 0.299669 -0.614367 -0.784982 -0.0213663 -0.328012 
-0.831371 -0.0119377 -0.347305 -0.833268 -0.130306 -0.291498 -0.696783 -0.016035 -0.387526 
-0.707623 -0.0726307 -0.295739 -0.727681 -0.0158798 -0.298657 -0.724779 0.0141732 -0.377875 
-0.785221 0.0285332 -0.327735 -0.760694 0.00334174 -0.325627 -0.776395 0.0235884 -0.333477 
-0.734641 0.000281647 -0.30227 -0.648792 0.0592182 -0.275352 -0.665949 0.042809 -0.279174 
-0.691157 0.0257844 -0.283535 -0.690288 0.0126496 -0.281948 -0.698284 0.0623248 -0.288197 
-0.831917 0.0415863 -0.342712 -0.771615 -0.0963283 -0.336811 -0.815391 0.349005 -0.397919 
-0.760539 -0.0962045 -0.30675 -0.703972 -0.00151815 -0.2914 -0.797316 -0.0141394 -0.33034 
-1.18726 0.0556993 -0.41393 -0.695862 -0.0310084 -0.287446 -0.667532 -0.0542033 -0.204453 
-0.593405 0.008334 -0.272693 -0.687781 -0.0267618 -0.283841 -0.669683 -0.0577529 -0.29159 
-0.609748 0.0802526 -0.262237 -0.646317 0.0180637 -0.274772 -0.731898 0.0047937 -0.298163 
-0.649894 0.0171665 -0.279274 -0.679411 0.0697398 -0.264067 -0.805306 0.00941371 -0.490259 
-0.905693 -0.0986295 -0.38276 -0.934145 0.0429742 -0.41338 -0.971894 0.201157 -0.443317 
-0.922913 0.301919 -0.530725 -0.663502 -0.0466382 -0.270313 -0.659934 -0.0431947 -0.273551 
-1.05381 -0.212161 -0.506913 -0.586751 -0.02629 -0.252385 -0.680844 -0.0731179 -0.282634 
-0.76849 -0.132577 -0.330856 -0.695599 0.0287479 -0.297285 -0.831429 -0.0597319 -0.375286 
-0.849291 -0.117931 -0.36649 -0.694606 0.158576 -0.315216 -0.598912 0.0206966 -0.259728 
-0.67424 -0.0552193 -0.280052 -0.584294 0.0244307 -0.307744 -0.627563 -0.0990304 -0.261225 
-0.634567 0.0197218 -0.308677 -0.693285 -0.10738 -0.309372 -0.947523 0.0319526 -0.637517 
-0.550136 -0.020253 -0.22811 -0.586026 -0.0275438 -0.249866 -0.665417 -0.0130309 -0.317874 
-0.576548 -0.0662587 -0.24062 -0.75271 0.0866376 -0.3208 -0.741348 0.0944403 -0.316756 
-0.807699 0.0732215 -0.352651 -0.738433 0.157922 -0.342984 -0.847425 -0.172072 -0.267171 
-0.814889 -0.0825844 -0.335296 -0.999839 -0.122135 -0.296475 -0.804265 0.0537588 -0.254924 
-0.572462 -0.0648272 -0.239833 -0.542012 0.035898 -0.242985 -0.926439 0.0541741 -0.429174 
-0.793041 0.148766 -0.133825 -0.518641 -0.0502083 -0.249029 -0.906399 -0.211109 -0.389993 
-0.798767 -0.0322129 -0.145034 -0.581498 0.103325 -0.263988 -0.811575 -0.146662 -0.351271 
-0.80934 0.0929222 -0.341491 -0.642138 -0.0499847 -0.268434 -0.808436 0.0936577 -0.327806 
-0.675884 0.0350195 -0.2838 -0.813934 -0.0546601 -0.339257 -0.660734 0.00846227 -0.256937 
-0.766703 -0.0299112 -0.310655 -0.813892 0.00211076 -0.336909 -0.84867 -0.103086 -0.383828 
-0.748175 -0.0983773 -0.301971 -0.75862 -0.0151968 -0.396715 -0.627185 -0.0642184 -0.261483 
-0.676622 0.0953567 -0.333429 -0.753857 -0.0527349 -0.316409 -0.719276 -0.0395746 -0.336303 
-0.874535 -0.0669522 -0.525051 -0.664601 -0.105198 -0.292763 -0.785967 -0.106781 -0.330629 