# vtk DataFile Version 4.0
Generated by LIGGGHTS
ASCII
DATASET POLYDATA
POINTS 728 float
-0.20702 -0.0227969 -0.191415 -0.492746 0.0248069 -0.397956 -0.496546 0.0158619 -0.389605 
-0.470478 -0.034981 -0.382222 -0.490722 -0.0172105 -0.377305 -0.467112 -0.00687344 -0.371907 
-0.472974 -0.0113254 -0.370124 -0.470335 0.0237569 -0.369893 -0.451182 0.0154545 -0.364603 
-0.456006 -0.0277011 -0.36184 -0.466673 0.0232673 -0.359528 -0.461863 0.0134236 -0.358674 
-0.453912 0.00839326 -0.352726 -0.448024 -0.0050484 -0.351172 -0.431738 -0.00634447 -0.350824 
-0.448201 -0.00649338 -0.344546 -0.458675 -0.0386671 -0.340164 -0.438112 0.00433595 -0.335815 
-0.430636 0.0140824 -0.336081 -0.446016 0.0268113 -0.336148 -0.44765 0.0336813 -0.337304 
-0.439823 0.0109914 -0.332648 -0.442244 0.058131 -0.331023 -0.429481 -0.0128729 -0.328176 
-0.431274 -0.0035467 -0.327199 -0.439602 0.00571446 -0.327288 -0.426537 0.00236692 -0.324108 
-0.421577 -0.0298618 -0.315424 -0.429931 0.00130086 -0.317284 -0.422033 0.00112325 -0.316929 
-0.417686 -0.000849588 -0.312166 -0.418522 0.0191894 -0.311356 -0.404098 -0.0041543 -0.304027 
-0.437254 -0.0454692 -0.302488 -0.400339 0.00333242 -0.300669 -0.407883 -0.0150514 -0.29921 
-0.413456 -0.00850064 -0.299458 -0.392158 -0.0116248 -0.295733 -0.397417 -0.00165879 -0.294168 
-0.401859 -0.000528992 -0.29614 -0.396676 0.00598273 -0.293093 -0.403877 0.0144036 -0.293195 
-0.384552 -0.0108889 -0.291584 -0.393132 -0.00391833 -0.286983 -0.389802 0.00422784 -0.285747 
-0.404452 0.0347857 -0.286168 -0.385473 -0.00637611 -0.281594 -0.392128 0.0171003 -0.282018 
-0.389888 -0.0184723 -0.280072 -0.38406 -0.0146541 -0.279555 -0.370933 -0.0010675 -0.277471 
-0.38383 0.0178462 -0.279874 -0.382775 -0.0183334 -0.27448 -0.388163 -0.00991839 -0.276002 
-0.379323 -0.00745331 -0.276779 -0.377748 -0.00212151 -0.276452 -0.374777 0.00736267 -0.274569 
-0.373777 -0.0111316 -0.270262 -0.372816 -0.00711268 -0.271594 -0.365116 -0.000643448 -0.272746 
-0.37085 0.018475 -0.26987 -0.366538 -0.00186485 -0.265815 -0.366113 0.00333496 -0.268541 
-0.362173 0.00126382 -0.265959 -0.367152 0.00769039 -0.26835 -0.379572 0.0329919 -0.268492 
-0.363936 -0.01258 -0.264503 -0.3537 0.0063658 -0.258582 -0.356832 0.0107132 -0.259389 
-0.355538 0.015573 -0.258721 -0.361306 -0.0331888 -0.25584 -0.351725 -0.0174594 -0.255303 
-0.347342 -0.00975858 -0.255652 -0.346329 -0.00620859 -0.253999 -0.345177 -0.0148403 -0.251239 
-0.343938 -0.00447199 -0.251154 -0.350724 0.0235831 -0.25242 -0.339127 -0.0238286 -0.246519 
-0.337659 -0.0108899 -0.247031 -0.33243 0.00606808 -0.246901 -0.338017 0.00884117 -0.2478 
-0.334549 -0.0227442 -0.243595 -0.328046 -0.0196608 -0.242304 -0.331497 -0.0102355 -0.244451 
-0.327453 -0.00918499 -0.243671 -0.32747 -0.00572852 -0.243928 -0.321478 -0.00442406 -0.241432 
-0.330759 -0.000789056 -0.244601 -0.326462 0.00299727 -0.242608 -0.330703 0.0114166 -0.245139 
-0.33293 0.0188621 -0.244896 -0.343564 -0.0395133 -0.241431 -0.339053 -0.0369918 -0.24148 
-0.335485 -0.0332365 -0.240648 -0.319651 -0.0214423 -0.238536 -0.319517 -0.0165173 -0.239062 
-0.316684 -0.0130778 -0.238644 -0.319804 -0.00915249 -0.240441 -0.313772 -0.00726382 -0.238147 
-0.316903 -0.00539893 -0.239526 -0.314379 0.000535667 -0.238674 -0.318799 0.00486929 -0.239178 
-0.314648 0.0127455 -0.238019 -0.326788 0.0304845 -0.237849 -0.31881 -0.019656 -0.235607 
-0.309559 -0.0178463 -0.235035 -0.305719 -0.00623556 -0.234831 -0.311774 0.00293214 -0.237425 
-0.312063 0.00909645 -0.237159 -0.309474 0.00794182 -0.236127 -0.312127 0.0123254 -0.236223 
-0.309127 0.0115794 -0.235609 -0.313689 0.0154406 -0.237123 -0.316089 0.018614 -0.237526 
-0.317026 0.024007 -0.236868 -0.326323 0.0402074 -0.235021 -0.308753 -0.0253228 -0.232874 
-0.300732 -0.0130667 -0.232092 -0.308561 -0.00570256 -0.231921 -0.29744 -0.00456579 -0.231397 
-0.301932 -0.00199213 -0.233278 -0.299657 -0.00024087 -0.231677 -0.303036 0.00272409 -0.233756 
-0.303346 0.00786731 -0.233562 -0.305967 0.0269789 -0.231673 -0.30636 -0.0285585 -0.231292 
-0.302516 -0.0257396 -0.229197 -0.307749 -0.0224717 -0.229612 -0.291301 -0.0205211 -0.226972 
-0.296981 -0.0178225 -0.229851 -0.296328 -0.0212393 -0.228881 -0.298124 -0.0158786 -0.227854 
-0.293746 -0.015278 -0.228914 -0.292128 -0.00417271 -0.22917 -0.294802 0.0090019 -0.228801 
-0.30178 -0.0382595 -0.226024 -0.291585 -0.0161263 -0.225485 -0.285112 0.00224437 -0.226229 
-0.288765 0.00941472 -0.22731 -0.312696 0.0448792 -0.227346 -0.286988 -0.0354452 -0.221148 
-0.273775 -0.00167438 -0.22043 -0.29091 0.00470867 -0.227302 -0.272869 0.0112058 -0.220598 
-0.282292 0.0121217 -0.223355 -0.28058 0.0197735 -0.221385 -0.306231 0.0445288 -0.223762 
-0.273032 -0.0223059 -0.217936 -0.27019 -0.01183 -0.219399 -0.26923 -0.00595888 -0.218361 
-0.26819 0.00749991 -0.216069 -0.269897 0.0123766 -0.218177 -0.281578 0.0150651 -0.220352 
-0.275605 0.0176815 -0.219668 -0.284747 0.0386536 -0.218013 -0.277966 -0.0429459 -0.213513 
-0.262435 -0.029762 -0.212894 -0.259249 -0.0156308 -0.214356 -0.259243 -0.0103963 -0.213881 
-0.263964 -0.00608782 -0.216134 -0.258816 -0.000284956 -0.215242 -0.253545 -0.000821626 -0.213026 
-0.268947 0.00294513 -0.217746 -0.262539 0.00653167 -0.215421 -0.259547 0.017458 -0.214128 
-0.26925 0.0298015 -0.215566 -0.26803 0.0308802 -0.212845 -0.254039 -0.0203704 -0.211473 
-0.248209 -0.0135139 -0.209884 -0.246338 -0.0110592 -0.209151 -0.254092 -0.00464839 -0.212026 
-0.255294 0.00287249 -0.212528 -0.249403 0.00279941 -0.210027 -0.251572 0.00623401 -0.211893 
-0.252795 0.0125989 -0.212013 -0.254981 0.0146779 -0.212621 -0.277429 0.0463194 -0.211712 
-0.246847 -0.0160792 -0.208934 -0.240806 -0.00594404 -0.207457 -0.239704 0.000306062 -0.207101 
-0.240987 0.00558634 -0.206371 -0.24377 0.010891 -0.207346 -0.242349 0.0156098 -0.20608 
-0.244931 0.0231707 -0.207162 -0.252752 -0.0400863 -0.204529 -0.239701 -0.010256 -0.20556 
-0.235263 -0.00669351 -0.203883 -0.230618 -0.00630234 -0.201986 -0.231556 -0.000508965 -0.202588 
-0.227635 -5.30537e-06 -0.201982 -0.235249 0.00553776 -0.203967 -0.23125 0.0088377 -0.203274 
-0.266452 0.050077 -0.206789 -0.23356 -0.035961 -0.199186 -0.225804 -0.00953906 -0.200805 
-0.222863 -0.00938096 -0.199554 -0.22197 0.00430569 -0.199487 -0.22588 0.00868957 -0.201026 
-0.236169 0.0115947 -0.203572 -0.249892 0.0463043 -0.201024 -0.252173 0.0485005 -0.202072 
-0.235597 -0.0393327 -0.197705 -0.231694 -0.0414218 -0.196007 -0.221974 -0.0272359 -0.195467 
-0.216168 -0.00933005 -0.195805 -0.219579 -0.00511858 -0.197481 -0.214527 -0.00651207 -0.196346 
-0.212181 -0.00485868 -0.195473 -0.216514 0.00113863 -0.196175 -0.219564 0.00545682 -0.197441 
-0.217716 0.0148635 -0.195795 -0.221064 0.0147525 -0.198331 -0.222545 0.0191219 -0.198422 
-0.217314 0.0237216 -0.195544 -0.226027 0.0338426 -0.196743 -0.213262 -0.0243379 -0.19254 
-0.21056 -0.0111895 -0.194248 -0.210612 0.00569183 -0.194697 -0.208021 0.0067672 -0.193306 
-0.210678 0.0081449 -0.192754 -0.21411 0.0285895 -0.193079 -0.241214 0.05564 -0.19394 
-0.209459 0.0225043 -0.192366 -0.206858 0.0256192 -0.18957 -0.210878 0.0334695 -0.190607 
-0.21566 0.037471 -0.191022 -0.217658 0.0398766 -0.191458 -0.220442 -0.0508305 -0.188541 
-0.224968 0.0289982 -0.181302 -0.206584 0.003751 -0.192979 -0.205178 0.00906742 -0.192253 
-0.206215 0.0158808 -0.183544 -0.203678 -0.00335607 -0.191849 -0.203451 -0.0150846 -0.189765 
-0.20299 0.0235505 -0.189557 -0.201789 -0.0131176 -0.185481 -0.201114 0.0127126 -0.189043 
-0.201638 -0.0188193 -0.185553 -0.0716738 0.0369857 -0.128145 -0.0755251 0.0542883 -0.128831 
-0.0650673 0.0391089 -0.128728 -0.0639751 0.0445115 -0.127211 -0.0531951 0.0170928 -0.126569 
-0.19717 -0.00965838 -0.188821 -0.194789 0.00413136 -0.188092 -0.0879734 0.00710039 -0.126262 
-0.197073 0.0125219 -0.188474 -0.0483942 -0.0127767 -0.125938 -0.196017 -0.0216401 -0.186035 
-0.0585731 0.0134547 -0.127035 -0.197022 -0.0176828 -0.186747 -0.193085 -0.0171785 -0.186164 
-0.0483736 -0.0184047 -0.125426 -0.193788 -0.0127406 -0.187033 -0.191363 -0.0108534 -0.186253 
-0.186296 -0.00395962 -0.18445 -0.189116 -0.00323449 -0.18567 -0.192378 0.000901113 -0.185412 
-0.199282 0.0208325 -0.187455 -0.194864 0.0262715 -0.185533 -0.196079 0.029305 -0.185402 
-0.18249 -0.0261443 -0.180492 -0.183089 -0.0161153 -0.182211 -0.178673 -0.0148382 -0.180543 
-0.188925 -0.0135391 -0.183841 -0.184398 -0.0110749 -0.183353 -0.1841 -0.0066657 -0.182382 
-0.184066 -0.00206937 -0.183522 -0.182099 0.00328315 -0.181699 -0.178489 0.000478446 -0.181217 
-0.180135 0.012013 -0.181373 -0.0617974 0.0269424 -0.127585 -0.188712 0.0311129 -0.181989 
-0.191795 0.0359713 -0.182188 -0.183018 -0.0393175 -0.177516 -0.175018 -0.0258979 -0.177521 
-0.178406 -0.0225352 -0.179523 -0.18389 -0.0123912 -0.179164 -0.177158 -0.0120393 -0.180266 
-0.172649 -0.0128915 -0.178287 -0.174799 -0.00725763 -0.178464 -0.171082 -0.00378917 -0.178062 
-0.170071 -0.00655755 -0.177475 -0.169062 0.00378228 -0.177335 -0.168633 0.00677343 -0.176944 
-0.171027 0.00866563 -0.177788 -0.172115 0.011471 -0.178012 -0.178501 0.0165238 -0.179206 
-0.183276 0.0268012 -0.1795 -0.176738 0.0258775 -0.178052 -0.190529 0.0334741 -0.18104 
-0.172563 -0.0207117 -0.17726 -0.168899 -0.0188424 -0.176026 -0.169663 -0.0148718 -0.175748 
-0.16504 -0.00884084 -0.175399 -0.193398 -0.00436616 -0.177144 -0.161962 -0.00244504 -0.174232 
-0.167379 0.000493913 -0.175513 -0.163556 0.00593905 -0.173846 -0.167076 0.0114698 -0.174826 
-0.162795 0.0118253 -0.174108 -0.167128 0.0164629 -0.174437 -0.166483 0.02631 -0.173688 
-0.17366 -0.0412864 -0.173169 -0.171243 -0.0309417 -0.173758 -0.164654 -0.0279672 -0.172779 
-0.162373 -0.0224679 -0.172518 -0.16324 -0.0177946 -0.172721 -0.15627 -0.0115967 -0.17044 
-0.164596 -0.00918966 -0.17247 -0.167544 -0.00499252 -0.174653 -0.159211 -0.00564233 -0.173131 
-0.154352 -0.00288674 -0.171091 -0.157664 0.0019477 -0.171317 -0.15718 0.0114117 -0.171841 
-0.165108 0.0225003 -0.172742 -0.157052 0.0230438 -0.170394 -0.147713 -0.0200519 -0.167031 
[...]
POINT_DATA 728
FIELD FieldData 7
id 1 728 int
275 32 27 2 108 99 7 1 22 
33 5 21 60 6 142 23 58 13 
36 28 11 41 38 10 57 92 8 
79 130 40 101 48 54 126 42 67 
4 63 46 14 44 59 53 49 29 
75 83 93 76 88 122 43 104 162 
20 62 45 15 50 134 72 100 87 
85 148 114 18 70 51 71 163 132 
181 69 116 17 177 61 192 158 154 
52 120 166 47 84 35 64 77 174 
37 81 147 39 74 109 94 12 96 
156 145 65 133 91 245 138 111 55 
73 25 95 118 98 82 233 146 112 
200 167 182 188 136 157 150 222 137 
176 103 86 125 110 175 187 196 244 
231 89 143 274 124 159 90 304 257 
66 80 139 203 186 78 234 227 270 
105 140 268 232 144 204 128 246 209 
281 127 113 198 327 171 224 170 228 
153 202 121 135 97 216 194 123 185 
141 178 215 161 165 191 117 102 243 
155 164 259 201 287 211 218 239 262 
277 238 265 230 290 129 119 152 252 
302 282 180 151 131 206 271 199 205 
219 260 220 309 278 183 300 342 210 
223 258 347 292 314 272 293 149 214 
288 254 279 295 461 449 459 436 509 
208 236 481 289 487 337 533 189 212 
532 251 250 284 172 190 318 184 299 
286 221 249 115 106 193 207 307 308 
160 496 311 325 320 312 315 317 169 
225 217 168 235 345 333 310 197 266 
256 323 301 107 313 229 346 372 379 
240 305 269 261 267 324 348 355 365 
413 179 253 297 344 247 285 280 322 
242 213 373 321 241 358 378 316 331 
329 226 352 370 255 381 237 303 328 
338 248 374 359 376 273 349 291 341 
283 380 389 264 173 392 332 319 350 
405 403 391 371 335 394 330 306 326 
415 367 384 354 334 411 294 336 393 
296 386 276 395 298 441 396 377 409 
388 382 414 400 339 362 369 404 406 
425 432 424 385 402 442 426 407 383 
356 398 360 351 343 428 375 412 357 
429 397 446 410 401 463 437 452 430 
408 363 448 387 364 399 340 390 419 
480 417 418 434 447 479 440 492 427 
469 478 421 464 460 457 368 472 450 
423 465 453 490 435 475 500 416 431 
353 422 433 476 458 482 439 438 513 
445 366 443 466 474 495 483 477 195 
535 468 455 361 504 514 498 470 420 
444 525 507 503 512 528 473 486 493 
734 731 733 467 517 494 524 729 566 
735 491 537 739 737 736 511 489 523 
727 565 519 527 542 506 559 502 471 
558 499 544 484 541 485 577 454 497 
563 521 526 534 582 548 554 543 501 
522 520 488 539 505 462 570 552 518 
510 576 540 536 573 572 596 568 588 
580 529 555 545 508 591 594 589 569 
592 575 546 547 578 516 579 556 586 
581 567 531 551 571 515 550 538 562 
585 530 549 584 574 590 560 593 451 
595 583 564 561 263 587 602 557 553 
607 603 608 601 600 604 597 599 605 
456 606 619 609 621 617 598 618 615 
614 620 622 616 611 613 610 612 628 
623 630 634 632 625 635 629 626 627 
633 624 631 637 645 641 639 638 647 
644 642 648 636 643 640 655 660 646 
658 656 654 650 653 659 651 649 652 
657 661 672 663 667 674 670 665 671 
673 662 669 664 679 666 668 682 680 
685 687 683 676 686 681 678 675 684 
697 677 698 693 689 695 688 694 691 
699 710 696 705 692 700 706 690 708 
712 702 713 709 703 701 711 707 704 
716 717 722 725 720 719 723 721 726 
715 718 724 714 728 738 730 732 
type 1 728 int
1 1 1 1 1 1 1 1 1 
1 1 1 1 1 1 1 1 1 
1 1 1 1 1 1 1 1 1 
1 1 1 1 1 1 1 1 1 
1 1 1 1 1 1 1 1 1 
1 1 1 1 1 1 1 1 1 
1 1 1 1 1 1 1 1 1 
1 1 1 1 1 1 1 1 1 
1 1 1 1 1 1 1 1 1 
1 1 1 1 1 1 1 1 1 
1 1 1 1 1 1 1 1 1 
1 1 1 1 1 1 1 1 1 
1 1 1 1 1 1 1 1 1 
1 1 1 1 1 1 1 1 1 
1 1 1 1 1 1 1 1 1 
1 1 1 1 1 1 1 1 1 
1 1 1 1 1 1 1 1 1 
1 1 1 1 1 1 1 1 1 
1 1 1 1 1 1 1 1 1 
1 1 1 1 1 1 1 1 1 
1 1 1 1 1 1 1 1 1 
1 1 1 1 1 1 1 1 1 
1 1 1 1 1 1 1 1 1 
1 1 1 1 1 1 1 1 1 
1 1 1 1 1 1 1 1 1 
1 1 1 1 1 1 1 1 1 
1 1 1 1 1 1 1 1 1 
1 1 1 1 1 1 1 1 1 
1 1 1 1 1 1 1 1 1 
1 1 1 1 1 1 1 1 1 
1 1 1 1 1 1 1 1 1 
1 1 1 1 1 1 1 1 1 
1 1 1 1 1 1 1 1 1 
1 1 1 1 1 1 1 1 1 
1 1 1 1 1 1 1 1 1 
1 1 1 1 1 1 1 1 1 
1 1 1 1 1 1 1 1 1 
1 1 1 1 1 1 1 1 1 
1 1 1 1 1 1 1 1 1 
1 1 1 1 1 1 1 1 1 
1 1 1 1 1 1 1 1 1 
1 1 1 1 1 1 1 1 1 
1 1 1 1 1 1 1 1 1 
1 1 1 1 1 1 1 1 1 
1 1 1 1 1 1 1 1 1 
1 1 1 1 1 1 1 1 1 
1 1 1 1 1 1 1 1 1 
1 1 1 1 1 1 1 1 1 
1 1 1 1 1 1 1 1 1 
1 1 1 1 1 1 1 1 1 
1 1 1 1 1 1 1 1 1 
1 1 1 1 1 1 1 1 1 
1 1 1 1 1 1 1 1 1 
1 1 1 1 1 1 1 1 1 
1 1 1 1 1 1 1 1 1 
1 1 1 1 1 1 1 1 1 
1 1 1 1 1 1 1 1 1 
1 1 1 1 1 1 1 1 1 
1 1 1 1 1 1 1 1 1 
1 1 1 1 1 1 1 1 1 
1 1 1 1 1 1 1 1 1 
1 1 1 1 1 1 1 1 1 
1 1 1 1 1 1 1 1 1 
1 1 1 1 1 1 1 1 1 
1 1 1 1 1 1 1 1 1 
1 1 1 1 1 1 1 1 1 
1 1 1 1 1 1 1 1 1 
1 1 1 1 1 1 1 1 1 
1 1 1 1 1 1 1 1 1 
1 1 1 1 1 1 1 1 1 
1 1 1 1 1 1 1 1 1 
1 1 1 1 1 1 1 1 1 
1 1 1 1 1 1 1 1 1 
1 1 1 1 1 1 1 1 1 
1 1 1 1 1 1 1 1 1 
1 1 1 1 1 1 1 1 1 
1 1 1 1 1 1 1 1 1 
1 1 1 1 1 1 1 1 1 
1 1 1 1 1 1 1 1 1 
1 1 1 1 1 1 1 1 1 
1 1 1 1 1 1 1 1 
i 3 728 int
0 0 0 0 0 0 0 0 0 
0 0 0 0 0 0 0 0 0 
0 0 0 0 0 0 0 0 0 
0 0 0 0 0 0 0 0 0 
0 0 0 0 0 0 0 0 0 
0 0 0 0 0 0 0 0 0 
0 0 0 0 0 0 0 0 0 
0 0 0 0 0 0 0 0 0 
0 0 0 0 0 0 0 0 0 
0 0 0 0 0 0 0 0 0 
0 0 0 0 0 0 0 0 0 
0 0 0 0 0 0 0 0 0 
0 0 0 0 0 0 0 0 0 
0 0 0 0 0 0 0 0 0 
0 0 0 0 0 0 0 0 0 
0 0 0 0 0 0 0 0 0 
0 0 0 0 0 0 0 0 0 
0 0 0 0 0 0 0 0 0 
0 0 0 0 0 0 0 0 0 
0 0 0 0 0 0 0 0 0 
0 0 0 0 0 0 0 0 0 
0 0 0 0 0 0 0 0 0 
0 0 0 0 0 0 0 0 0 
0 0 0 0 0 0 0 0 0 
0 0 0 0 0 0 0 0 0 
0 0 0 0 0 0 0 0 0 
0 0 0 0 0 0 0 0 0 
0 0 0 0 0 0 0 0 0 
0 0 0 0 0 0 0 0 0 
0 0 0 0 0 0 0 0 0 
0 0 0 0 0 0 0 0 0 
0 0 0 0 0 0 0 0 0 
0 0 0 0 0 0 0 0 0 
0 0 0 0 0 0 0 0 0 
0 0 0 0 0 0 0 0 0 
0 0 0 0 0 0 0 0 0 
0 0 0 0 0 0 0 0 0 
0 0 0 0 0 0 0 0 0 
0 0 0 0 0 0 0 0 0 
0 0 0 0 0 0 0 0 0 
0 0 0 0 0 0 0 0 0 
0 0 0 0 0 0 0 0 0 
0 0 0 0 0 0 0 0 0 
0 0 0 0 0 0 0 0 0 
0 0 0 0 0 0 0 0 0 
0 0 0 0 0 0 0 0 0 
0 0 0 0 0 0 0 0 0 
0 0 0 0 0 0 0 0 0 
0 0 0 0 0 0 0 0 0 
0 0 0 0 0 0 0 0 0 
0 0 0 0 0 0 0 0 0 
0 0 0 0 0 0 0 0 0 
0 0 0 0 0 0 0 0 0 
0 0 0 0 0 0 0 0 0 
0 0 0 0 0 0 0 0 0 
0 0 0 0 0 0 0 0 0 
0 0 0 0 0 0 0 0 0 
0 0 0 0 0 0 0 0 0 
0 0 0 0 0 0 0 0 0 
0 0 0 0 0 0 0 0 0 
0 0 0 0 0 0 0 0 0 
0 0 0 0 0 0 0 0 0 
0 0 0 0 0 0 0 0 0 
0 0 0 0 0 0 0 0 0 
0 0 0 0 0 0 0 0 0 
0 0 0 0 0 0 0 0 0 
0 0 0 0 0 0 0 0 0 
0 0 0 0 0 0 0 0 0 
0 0 0 0 0 0 0 0 0 
0 0 0 0 0 0 0 0 0 
0 0 0 0 0 0 0 0 0 
0 0 0 0 0 0 0 0 0 
0 0 0 0 0 0 0 0 0 
0 0 0 0 0 0 0 0 0 
0 0 0 0 0 0 0 0 0 
0 0 0 0 0 0 0 0 0 
0 0 0 0 0 0 0 0 0 
0 0 0 0 0 0 0 0 0 
0 0 0 0 0 0 0 0 0 
0 0 0 0 0 0 0 0 0 
0 0 0 0 0 0 0 0 0 
0 0 0 0 0 0 0 0 0 
0 0 0 0 0 0 0 0 0 
0 0 0 0 0 0 0 0 0 
0 0 0 0 0 0 0 0 0 
0 0 0 0 0 0 0 0 0 
0 0 0 0 0 0 0 0 0 
0 0 0 0 0 0 0 0 0 
0 0 0 0 0 0 0 0 0 
0 0 0 0 0 0 0 0 0 
0 0 0 0 0 0 0 0 0 
0 0 0 0 0 0 0 0 0 
0 0 0 0 0 0 0 0 0 
0 0 0 0 0 0 0 0 0 
0 0 0 0 0 0 0 0 0 
0 0 0 0 0 0 0 0 0 
0 0 0 0 0 0 0 0 0 
0 0 0 0 0 0 0 0 0 
0 0 0 0 0 0 0 0 0 
0 0 0 0 0 0 0 0 0 
0 0 0 0 0 0 0 0 0 
0 0 0 0 0 0 0 0 0 
0 0 0 0 0 0 0 0 0 
0 0 0 0 0 0 0 0 0 
0 0 0 0 0 0 0 0 0 
0 0 0 0 0 0 0 0 0 
0 0 0 0 0 0 0 0 0 
0 0 0 0 0 0 0 0 0 
0 0 0 0 0 0 0 0 0 
0 0 0 0 0 0 0 0 0 
0 0 0 0 0 0 0 0 0 
0 0 0 0 0 0 0 0 0 
0 0 0 0 0 0 0 0 0 
0 0 0 0 0 0 0 0 0 
0 0 0 0 0 0 0 0 0 
0 0 0 0 0 0 0 0 0 
0 0 0 0 0 0 0 0 0 
0 0 0 0 0 0 0 0 0 
0 0 0 0 0 0 0 0 0 
0 0 0 0 0 0 0 0 0 
0 0 0 0 0 0 0 0 0 
0 0 0 0 0 0 0 0 0 
0 0 0 0 0 0 0 0 0 
0 0 0 0 0 0 0 0 0 
0 0 0 0 0 0 0 0 0 
0 0 0 0 0 0 0 0 0 
0 0 0 0 0 0 0 0 0 
0 0 0 0 0 0 0 0 0 
0 0 0 0 0 0 0 0 0 
0 0 0 0 0 0 0 0 0 
0 0 0 0 0 0 0 0 0 
0 0 0 0 0 0 0 0 0 
0 0 0 0 0 0 0 0 0 
0 0 0 0 0 0 0 0 0 
0 0 0 0 0 0 0 0 0 
0 0 0 0 0 0 0 0 0 
0 0 0 0 0 0 0 0 0 
0 0 0 0 0 0 0 0 0 
0 0 0 0 0 0 0 0 0 
0 0 0 0 0 0 0 0 0 
0 0 0 0 0 0 0 0 0 
0 0 0 0 0 0 0 0 0 
0 0 0 0 0 0 0 0 0 
0 0 0 0 0 0 0 0 0 
0 0 0 0 0 0 0 0 0 
0 0 0 0 0 0 0 0 0 
0 0 0 0 0 0 0 0 0 
0 0 0 0 0 0 0 0 0 
0 0 0 0 0 0 0 0 0 
0 0 0 0 0 0 0 0 0 
0 0 0 0 0 0 0 0 0 
0 0 0 0 0 0 0 0 0 
0 0 0 0 0 0 0 0 0 
0 0 0 0 0 0 0 0 0 
0 0 0 0 0 0 0 0 0 
0 0 0 0 0 0 0 0 0 
0 0 0 0 0 0 0 0 0 
0 0 0 0 0 0 0 0 0 
0 0 0 0 0 0 0 0 0 
0 0 0 0 0 0 0 0 0 
0 0 0 0 0 0 0 0 0 
0 0 0 0 0 0 0 0 0 
0 0 0 0 0 0 0 0 0 
0 0 0 0 0 0 0 0 0 
0 0 0 0 0 0 0 0 0 
0 0 0 0 0 0 0 0 0 
0 0 0 0 0 0 0 0 0 
0 0 0 0 0 0 0 0 0 
0 0 0 0 0 0 0 0 0 
0 0 0 0 0 0 0 0 0 
0 0 0 0 0 0 0 0 0 
0 0 0 0 0 0 0 0 0 
0 0 0 0 0 0 0 0 0 
0 0 0 0 0 0 0 0 0 
0 0 0 0 0 0 0 0 0 
0 0 0 0 0 0 0 0 0 
0 0 0 0 0 0 0 0 0 
0 0 0 0 0 0 0 0 0 
0 0 0 0 0 0 0 0 0 
0 0 0 0 0 0 0 0 0 
0 0 0 0 0 0 0 0 0 
0 0 0 0 0 0 0 0 0 
0 0 0 0 0 0 0 0 0 
0 0 0 0 0 0 0 0 0 
0 0 0 0 0 0 0 0 0 
0 0 0 0 0 0 0 0 0 
0 0 0 0 0 0 0 0 0 
0 0 0 0 0 0 0 0 0 
0 0 0 0 0 0 0 0 0 
0 0 0 0 0 0 0 0 0 
0 0 0 0 0 0 0 0 0 
0 0 0 0 0 0 0 0 0 
0 0 0 0 0 0 0 0 0 
0 0 0 0 0 0 0 0 0 
0 0 0 0 0 0 0 0 0 
0 0 0 0 0 0 0 0 0 
0 0 0 0 0 0 0 0 0 
0 0 0 0 0 0 0 0 0 
0 0 0 0 0 0 0 0 0 
0 0 0 0 0 0 0 0 0 
0 0 0 0 0 0 0 0 0 
0 0 0 0 0 0 0 0 0 
0 0 0 0 0 0 0 0 0 
0 0 0 0 0 0 0 0 0 
0 0 0 0 0 0 0 0 0 
0 0 0 0 0 0 0 0 0 
0 0 0 0 0 0 0 0 0 
0 0 0 0 0 0 0 0 0 
0 0 0 0 0 0 0 0 0 
0 0 0 0 0 0 0 0 0 
0 0 0 0 0 0 0 0 0 
0 0 0 0 0 0 0 0 0 
0 0 0 0 0 0 0 0 0 
0 0 0 0 0 0 0 0 0 
0 0 0 0 0 0 0 0 0 
0 0 0 0 0 0 0 0 0 
0 0 0 0 0 0 0 0 0 
0 0 0 0 0 0 0 0 0 
0 0 0 0 0 0 0 0 0 
0 0 0 0 0 0 0 0 0 
0 0 0 0 0 0 0 0 0 
0 0 0 0 0 0 0 0 0 
0 0 0 0 0 0 0 0 0 
0 0 0 0 0 0 0 0 0 
0 0 0 0 0 0 0 0 0 
0 0 0 0 0 0 0 0 0 
0 0 0 0 0 0 0 0 0 
0 0 0 0 0 0 0 0 0 
0 0 0 0 0 0 0 0 0 
0 0 0 0 0 0 0 0 0 
0 0 0 0 0 0 0 0 0 
0 0 0 0 0 0 0 0 0 
0 0 0 0 0 0 0 0 0 
0 0 0 0 0 0 0 0 0 
0 0 0 0 0 0 0 0 0 
0 0 0 0 0 0 0 0 0 
0 0 0 0 0 0 0 0 0 
0 0 0 0 0 0 0 0 0 
0 0 0 0 0 0 0 0 0 
0 0 0 0 0 0 0 0 0 
0 0 0 0 0 0 0 0 0 
0 0 0 0 0 0 0 0 0 
0 0 0 0 0 0 
v 3 728 double
-0.961491 -0.0417441 -0.383512 -1.29371 0.154395 -1.83175 -1.37864 0.0410424 -1.87656 
-1.12274 0.0154003 -1.77407 -1.34684 0.255768 -1.7995 -1.29568 0.280331 -1.77946 
-1.28265 -0.0239591 -1.67108 -1.26435 0.0221371 -1.71282 -1.14007 0.0619945 -1.64455 
-1.18685 -0.0202596 -1.64561 -1.25753 0.0630385 -1.59233 -1.27086 -0.0159577 -1.61206 
-1.17479 0.0230187 -1.54003 -1.17123 0.0260053 -1.55344 -1.36559 -0.0590547 -1.79393 
-1.20375 0.00503665 -1.49201 -1.28551 0.102613 -1.5753 -1.21196 0.0390049 -1.45037 
-1.08435 0.0642844 -1.43611 -1.2302 0.00574051 -1.47467 -1.22067 0.0285474 -1.48008 
-1.24643 -0.117866 -1.46265 -1.0323 0.152826 -1.41992 -1.116 0.019221 -1.38013 
-1.22662 -0.116708 -1.39911 -1.34796 0.269572 -1.43896 -1.22068 -0.298572 -1.42695 
-1.10241 -0.0910185 -1.2964 -1.37075 -0.249623 -1.38751 -1.19979 -0.0555813 -1.32601 
-1.20344 -0.0768672 -1.29132 -1.19319 -0.0892842 -1.29863 -1.08092 -0.0613343 -1.20498 
-1.19839 0.239857 -1.43565 -1.07951 0.0100131 -1.16778 -1.27485 0.17461 -1.2523 
-1.31844 0.0999611 -1.204 -0.973525 -0.054984 -1.12244 -1.1745 -0.054974 -1.13047 
-1.20031 -0.116061 -1.16445 -1.16531 -0.100774 -1.12517 -1.277 -0.273313 -1.19755 
-0.950694 -0.0282768 -1.10455 -1.21623 0.0824053 -1.06677 -1.16483 0.0470791 -1.0587 
-1.27791 -0.159827 -1.17388 -1.13593 0.0982091 -0.997665 -1.11646 -0.190801 -1.0172 
-1.22816 0.208558 -1.06645 -1.00125 -0.056749 -0.956416 -0.927985 -0.0893705 -0.942685 
-1.14832 -0.0493155 -1.01151 -1.24862 0.224029 -1.02197 -1.07355 0.0243757 -0.944202 
-1.15392 0.253472 -0.989236 -1.16496 0.313566 -0.990688 -1.0702 0.0723754 -0.904722 
-1.16235 0.0278991 -0.896219 -1.14927 0.0317068 -0.900102 -0.916792 0.00792413 -0.941557 
-1.0697 -0.178245 -0.914027 -1.06719 -0.01735 -0.731729 -1.08106 0.0368958 -0.855363 
-1.05461 -0.0269159 -0.821705 -1.12405 -0.115274 -0.874434 -1.25689 0.0342867 -0.95943 
-1.1263 -0.0230756 -0.809383 -1.15631 -0.04943 -0.760079 -1.13458 0.0303929 -0.775128 
-1.15352 0.0596096 -0.754504 -1.2255 0.338249 -0.918417 -1.08618 -0.129173 -0.659578 
-1.06918 0.00527484 -0.742466 -1.10517 0.0370108 -0.701168 -1.04079 0.00651297 -0.630898 
-1.13677 0.0257101 -0.64028 -1.21306 -0.0523629 -0.738108 -1.18328 0.102491 -0.60849 
-1.08167 -0.0200369 -0.543176 -1.08849 -0.0675976 -0.616511 -1.25934 -0.101095 -0.66052 
-1.08858 -0.00313056 -0.530325 -1.26404 0.214881 -0.585415 -1.05827 0.0730597 -0.523062 
-1.04712 0.0604206 -0.476197 -0.961548 0.0916634 -0.44998 -0.903391 0.084087 -0.369476 
-1.09304 0.0583722 -0.518338 -1.07089 0.0764774 -0.486565 -1.15856 0.079826 -0.55668 
-1.17128 -0.0833829 -0.591983 -1.31752 0.207942 -0.643377 -1.03919 0.197265 -0.559212 
-1.09286 0.0703228 -0.540299 -0.943407 -0.0267743 -0.369704 -0.973134 0.0703171 -0.449021 
-0.90803 0.170188 -0.434168 -0.965204 0.220098 -0.408152 -1.05377 0.0869518 -0.430984 
-1.012 -0.00495886 -0.407431 -1.0478 -0.0629066 -0.445681 -1.06229 -0.0381823 -0.450094 
-1.03005 -0.0243299 -0.436967 -0.890193 -0.0398723 -0.401745 -1.08383 -0.051568 -0.287795 
-1.20526 -0.124963 -0.44809 -0.840224 0.0904565 -0.357494 -1.02774 -0.142526 -0.441397 
-0.999787 -0.0227603 -0.422188 -0.995841 -0.0301068 -0.466668 -1.01434 -0.0634149 -0.466705 
-1.00129 -0.0855801 -0.456399 -1.04186 -0.00645494 -0.483997 -1.03947 0.0653136 -0.421242 
-0.870229 -0.121747 -0.386977 -0.988256 0.109287 -0.32893 -1.01845 0.0778628 -0.313606 
-1.04806 0.0674678 -0.448508 -0.991359 0.127795 -0.546511 -1.13673 0.0323298 -0.480458 
-0.971924 0.0842474 -0.409263 -0.956643 0.0766632 -0.268865 -1.22221 -0.0918872 -0.520889 
-1.0413 -0.0520299 -0.442803 -1.21716 -0.101418 -0.527867 -1.1115 0.214315 -0.492085 
-0.891371 0.105974 -0.375103 -1.06646 0.310137 -0.209523 -0.878423 0.11165 -0.387767 
-0.917044 -0.00652176 -0.381537 -1.01261 -0.040877 -0.381932 -0.942619 0.0262682 -0.472927 
-0.867103 0.18658 -0.384182 -1.05104 0.171529 -0.449556 -1.1328 0.15253 -0.468605 
-1.21212 0.00523338 -0.457291 -0.956374 0.129624 -0.332219 -1.00343 -0.0192487 -0.42411 
-1.12167 -0.0780311 -0.478793 -1.10697 -0.384764 -0.655193 -1.14727 0.0697956 -0.516563 
-1.00055 0.0364805 -0.421238 -1.4231 -0.13074 -1.1871 -0.902386 0.100754 -0.365667 
-1.06605 -0.0907133 -0.445046 -1.1274 -0.0713115 -0.495358 -1.08952 -0.105584 -0.476496 
-1.00781 -0.106107 -0.416772 -0.980222 0.0307471 -0.417519 -0.999511 0.00361311 -0.42348 
-0.923493 -0.0454901 -0.354212 -0.892396 0.0481708 -0.370288 -1.08769 0.00294689 -0.889578 
-1.10592 -0.0205057 -0.454848 -0.975688 -0.0965568 -0.436595 -1.2024 -0.0543111 -0.437956 
-0.993959 -0.0505859 -0.443624 -0.855211 -0.0867423 -0.351043 -0.914961 -0.0401633 -0.376103 
-0.979126 -0.040153 -0.406755 -0.886903 0.011972 -0.376797 -0.744653 0.0256618 -0.314364 
-1.15942 0.198165 -0.886963 -1.02173 -0.0475409 -0.434869 -1.01112 -0.210114 -0.454855 
-0.887953 0.0319478 -0.346448 -0.97903 0.0293627 -0.381532 -1.00758 -0.144599 -0.458759 
-0.860062 -0.0206367 -0.371615 -0.913895 0.075959 -0.38301 -0.971315 0.0476495 -0.410757 
-0.897096 -0.0040783 -0.375787 -0.928131 0.0596971 -0.397101 -0.870989 0.0382483 -0.369182 
-0.927598 -0.0126518 -0.39836 -0.942728 -0.0147723 -0.400488 -1.14878 -0.315807 -0.610591 
-1.04043 -0.0195702 -0.419548 -0.889632 -0.0621789 -0.365632 -0.847103 -0.0269787 -0.361628 
-0.876572 -0.0418817 -0.375683 -0.975541 -0.010167 -0.408206 -0.94357 -0.046586 -0.396873 
-0.948408 -0.0842952 -0.40415 -0.995839 0.10647 -0.445705 -0.986799 -0.0100666 -0.443017 
-0.913605 -0.0450973 -0.375704 -0.90472 -0.0928794 -0.368203 -0.710455 -0.0257475 -0.304818 
-0.713079 -0.00485214 -0.305457 -0.907912 0.00890076 -0.377492 -0.800976 0.0335014 -0.332716 
-1.08139 -0.434265 -0.680421 -0.851547 0.114669 -0.378371 -0.891797 -0.0728964 -0.375448 
-0.875996 0.00384799 -0.381075 -0.693857 -0.0469835 -0.289581 -0.737138 -0.010407 -0.306856 
-1.12391 0.0904697 -0.651523 -0.957069 -0.303673 -0.368841 -0.927715 -0.245216 -0.454116 
-0.964411 0.110272 -0.430672 -0.939242 -0.0118557 -0.373801 -0.860386 0.135621 -0.390154 
-0.752717 -0.0251928 -0.306851 -0.941341 0.00821382 -0.391005 -0.875507 0.0485464 -0.366567 
-0.760422 -0.123184 -0.32738 -0.917098 -0.0477156 -0.396813 -0.723253 -7.60952e-05 -0.399167 
-0.961468 0.107015 -0.393731 -0.938814 -0.0265224 -0.403823 -0.922446 -0.00695404 -0.377396 
-0.787077 -0.0558023 -0.345458 -0.95701 -0.164865 -0.437288 -0.967821 -0.0227111 -0.392564 
-0.689704 -0.00570694 -0.294437 -0.861012 -0.0739662 -0.359531 -0.876982 -0.02067 -0.346831 
-0.847556 0.040942 -0.473147 -0.92252 0.00828905 -0.388045 -0.864618 -0.192263 -0.447376 
-0.863144 0.0933188 -0.218225 -0.811729 -0.00382239 -0.302696 -0.992373 -0.0981686 -0.426208 
-1.02013 0.0634866 -0.425182 -1.00508 0.0744134 -0.401422 -1.16903 0.0713844 -0.502591 
-1.05368 0.0855229 -0.48976 -0.898063 -0.0850995 -0.417908 -0.871898 0.197871 -0.351649 
-1.04962 -0.0645066 -0.561832 -0.81652 0.0265233 -0.350081 -0.79605 -0.052047 -0.324991 
-0.740824 0.0629185 -0.300562 -0.787247 0.0221265 -0.364019 -0.779451 -0.0138864 -0.324065 
-0.927067 -0.181403 -0.528449 -0.451768 0.289482 -0.603254 -0.571061 0.142863 -0.180165 
-0.757816 0.0916056 -0.202714 -0.658027 0.227842 -0.192812 -0.675994 -0.0480961 -0.285419 
-0.779179 0.0448293 -0.327193 -0.749908 0.0997665 -0.312444 -0.748883 -0.135264 -0.552162 
-0.7599 0.0734799 -0.308015 -0.392003 -0.0436093 -0.192513 -1.06603 -0.264037 -0.484159 
-0.871751 -0.0973204 -0.623086 -0.793713 -0.0512064 -0.332353 -0.775059 -0.00621933 -0.274899 
-0.305282 0.112002 -0.141606 -0.819419 0.0517926 -0.351775 -0.809927 0.0445381 -0.339704 
-0.664112 -0.0177269 -0.285247 -0.702236 -0.0191546 -0.300853 -0.774927 -0.0242091 -0.429992 
-0.776645 0.0158718 -0.32087 -0.843539 0.0203059 -0.348648 -0.949814 0.0270358 -0.396012 
-0.78968 -0.100551 -0.310674 -0.785367 -0.00854704 -0.323185 -0.817454 0.0198265 -0.332013 
-0.829325 0.00669676 -0.343214 -0.774031 -0.00735375 -0.316568 -0.830081 -0.0346848 -0.354788 
-0.71776 0.0486442 -0.308427 -0.650927 0.0137988 -0.272745 -0.670231 -0.0443518 -0.279697 
-0.724935 -0.014398 -0.309354 -0.891581 0.104796 -0.229451 -0.746751 -0.0889939 -0.333107 
-0.855445 -0.02043 -0.375009 -0.864427 -0.0996777 -0.322091 -0.755473 -0.0521613 -0.295607 
-0.748057 0.000790369 -0.270432 -0.747762 -0.0201684 -0.338662 -0.823124 0.0229433 -0.329554 
-0.825735 0.036702 -0.356039 -0.809447 0.00815054 -0.333312 -0.803132 0.0245253 -0.322649 
-0.982468 -0.0533233 -0.285487 -0.637133 0.0620499 -0.275901 -0.700137 0.026189 -0.294022 
-0.730569 0.00757639 -0.304274 -0.733556 0.00749891 -0.305498 -0.739316 0.0543181 -0.306661 
-0.875352 0.0209236 -0.364317 -0.814541 -0.116546 -0.35904 -0.909158 -0.0859345 -0.456595 
-0.851891 0.365353 -0.440554 -0.777139 0.000490669 -0.310339 -0.838177 -0.00443755 -0.357937 
-0.763687 -0.00496506 -0.251848 -1.18726 0.0556993 -0.59051 -0.682787 -0.0552899 -0.297153 
-0.728851 -0.0269836 -0.315446 -0.719872 -0.0603016 -0.298515 -0.698023 0.00743643 -0.290625 
-0.666619 0.00731739 -0.272739 -0.697845 0.00682021 -0.290501 -0.821708 -0.0186844 -0.352509 
-0.956034 -0.0576972 -0.357495 -0.982424 0.0722128 -0.412687 -0.796105 -0.0792596 -0.36022 
-0.809435 -0.0527524 -0.35198 -0.766898 0.0323957 -0.330948 -0.702716 -0.0376718 -0.292887 
-1.10029 -0.17936 -0.168527 -0.924764 0.187988 -0.33619 -0.685993 -0.0181543 -0.285444 
-0.641118 0.00933507 -0.263684 -0.817513 -0.135702 -0.337929 -0.657491 0.0691144 -0.263462 
-0.721507 0.00545354 -0.298866 -0.871189 -0.0844539 -0.368662 -0.696461 0.173945 -0.307412 
-0.72244 -0.0438256 -0.289825 -0.705713 -0.037023 -0.297758 -0.546478 0.0388897 -0.247711 
-0.918934 -0.215522 -0.58167 -0.643253 -0.031345 -0.267156 -0.633881 0.00402492 -0.260919 
-0.609522 -0.0261479 -0.254992 -0.647973 0.0512269 -0.314513 -0.7403 0.017094 -0.31873 
-0.839665 0.0628638 -0.327744 -0.776856 0.19189 -0.368993 -0.847425 -0.172072 -0.443751 
-0.72787 -0.100838 -0.296361 -0.8267 -0.00690571 -0.295451 -0.647183 -0.0673215 -0.261602 
-0.999839 -0.122135 -0.473055 -0.742149 -0.0934793 -0.307426 -0.638638 0.00202637 -0.338632 
-0.943709 -0.0583093 -0.474643 -0.859302 0.017673 -0.306973 -0.592461 -0.0176861 -0.253137 
-0.428299 -0.0616289 -0.204134 -0.597413 -0.0374462 -0.247107 -0.874535 -0.0669522 -0.701631 
-0.811575 -0.146662 -0.527851 -0.807102 0.0775553 -0.320004 -0.791009 0.0873915 -0.313709 
-0.798821 0.0856498 -0.314089 -0.681051 -0.0638707 -0.302902 -0.675884 0.0350195 -0.46038 
-0.755872 0.0425019 -0.322104 -0.869295 -0.0535724 -0.366286 -0.811752 -0.0100282 -0.343187 
-0.808657 -0.0251834 -0.330283 -0.920839 -0.0496985 -0.378258 -0.804265 0.0537588 -0.431504 
-0.57514 -0.0166871 -0.2449 -0.668156 -0.0600451 -0.287598 -0.604479 0.0580968 -0.248166 
-0.777062 0.00601601 -0.278092 -0.784361 0.112596 -0.186679 -0.647675 0.137703 -0.28166 
-0.617712 0.00452144 -0.204678 -0.785808 0.0921114 -0.239973 -0.905459 -0.0640102 -0.343691 