# vtk DataFile Version 4.0
Generated by LIGGGHTS
ASCII
DATASET POLYDATA
POINTS 646 float
-0.485944 -0.0206955 -0.37051 -0.24224 0.0645555 -0.189129 -0.453494 0.000158478 -0.337494 
-0.434474 -0.00286195 -0.322747 -0.45556 -0.0449567 -0.320451 -0.439577 0.0327102 -0.318517 
-0.409501 -0.00350203 -0.306123 -0.421531 0.0190896 -0.308137 -0.425213 0.0325295 -0.303292 
-0.421003 0.0363957 -0.304116 -0.404774 0.014308 -0.296078 -0.394131 -0.0360282 -0.284266 
-0.402798 0.013071 -0.28468 -0.385754 -0.00969614 -0.279171 -0.399137 -0.0346027 -0.27762 
-0.373657 0.0112389 -0.275455 -0.384359 0.0222515 -0.276102 -0.379006 -0.025936 -0.273585 
-0.375301 -0.0263234 -0.272619 -0.375445 0.0145087 -0.271734 -0.38116 0.0189807 -0.27393 
-0.368381 -0.00681676 -0.268219 -0.374026 0.00682798 -0.270684 -0.366346 -0.00683587 -0.26577 
-0.355699 0.00168362 -0.25987 -0.356901 0.00971102 -0.261106 -0.353593 -0.01418 -0.257007 
-0.355066 0.0190063 -0.255868 -0.362362 0.026421 -0.258551 -0.364644 0.0317401 -0.259339 
-0.372047 0.0477388 -0.257149 -0.37126 -0.0456448 -0.255725 -0.34794 -0.0126164 -0.25212 
-0.347863 0.00438946 -0.25474 -0.346613 -0.0236725 -0.24995 -0.340447 0.00490278 -0.249442 
-0.34353 0.0226698 -0.249757 -0.325958 -0.00788589 -0.242087 -0.338878 -0.00232874 -0.251517 
-0.330595 1.64355e-05 -0.244769 -0.326932 0.00265153 -0.24394 -0.335852 0.00437738 -0.247037 
-0.336721 0.0182752 -0.245614 -0.337385 0.0252607 -0.24573 -0.323802 -0.015298 -0.240267 
-0.320005 -0.00890181 -0.239313 -0.317566 0.00207574 -0.23992 -0.32024 0.00736251 -0.239627 
-0.321184 -0.0269166 -0.236673 -0.316192 -0.011116 -0.237778 -0.310608 -0.00949821 -0.23659 
-0.310709 0.00100646 -0.236014 -0.308263 0.004558 -0.235844 -0.317454 0.0128323 -0.239193 
-0.314483 -0.0115528 -0.233167 -0.308495 -0.0129914 -0.235269 -0.303205 6.29041e-05 -0.233991 
-0.302047 0.00280448 -0.233308 -0.306 0.0210758 -0.232837 -0.315753 0.0291898 -0.234903 
-0.31744 0.0331324 -0.234232 -0.301486 -0.0245341 -0.230204 -0.298428 -0.0227 -0.229385 
-0.295626 -0.012832 -0.228884 -0.295376 -0.00900269 -0.230285 -0.294151 -0.00178461 -0.230106 
-0.293303 0.00111721 -0.229755 -0.290719 0.00354014 -0.228512 -0.298907 0.0288804 -0.228165 
-0.355764 -0.0617795 -0.227545 -0.306717 -0.0323813 -0.228944 -0.288753 -0.0106963 -0.227314 
-0.280542 -0.00772034 -0.224161 -0.291605 0.0152325 -0.227972 -0.317583 0.0456036 -0.228856 
-0.298442 -0.0331038 -0.225414 -0.277152 -0.0143059 -0.220957 -0.272865 -0.0078157 -0.220915 
-0.281519 0.0082986 -0.223254 -0.277091 0.00941921 -0.222441 -0.277731 0.0127125 -0.222119 
-0.293965 0.0310118 -0.224225 -0.266767 -0.0157426 -0.217507 -0.266009 -0.00949456 -0.217898 
-0.263858 -0.00752799 -0.217114 -0.269719 -0.00565208 -0.21858 -0.264744 -0.0212529 -0.214665 
-0.263279 -0.0130724 -0.215264 -0.258858 -0.0112191 -0.214715 -0.261533 -0.00447739 -0.215177 
-0.254356 -0.00443366 -0.213229 -0.258256 0.00287943 -0.214853 -0.256446 0.00530726 -0.213984 
-0.270736 0.0259406 -0.216138 -0.266281 -0.0387642 -0.211669 -0.264988 -0.034403 -0.211415 
-0.262584 -0.0283747 -0.213284 -0.25824 -0.0215107 -0.212932 -0.251955 -0.0239833 -0.209868 
-0.256619 -0.0189283 -0.212849 -0.253895 -0.0187907 -0.21156 -0.272566 -0.0090621 -0.213345 
-0.264258 -0.00904969 -0.211016 -0.25499 -0.000139827 -0.212528 -0.252313 0.00663438 -0.211108 
-0.248867 0.00398344 -0.210834 -0.253376 0.0115524 -0.212428 -0.250731 0.010726 -0.211334 
-0.256445 0.0153984 -0.212037 -0.2573 0.0226128 -0.212393 -0.259273 0.0281516 -0.21192 
-0.266025 0.0292449 -0.213008 -0.279626 -0.0538929 -0.209741 -0.24591 -0.0165296 -0.208467 
-0.246871 -0.0121845 -0.209519 -0.244184 -0.0131917 -0.208307 -0.240872 0.00705275 -0.207354 
-0.244055 0.00947942 -0.208604 -0.248489 0.0148605 -0.209868 -0.243107 0.0147695 -0.207603 
-0.254327 0.032775 -0.208643 -0.247327 -0.0311664 -0.20611 -0.249608 -0.0184718 -0.20057 
-0.241388 -0.0137123 -0.205506 -0.238828 -0.0168001 -0.205627 -0.236277 -0.0152758 -0.204724 
-0.231351 -0.00896179 -0.203167 -0.234195 -0.00725508 -0.204479 -0.231245 0.00388904 -0.203431 
-0.238194 0.0106322 -0.206108 -0.237608 0.0143057 -0.205376 -0.238733 0.0228289 -0.204648 
-0.234312 -0.0324025 -0.199579 -0.237104 -0.0213685 -0.204093 -0.226593 -0.015001 -0.200649 
-0.236941 -0.0128993 -0.202899 -0.225959 -0.00622892 -0.201141 -0.225617 0.00822248 -0.200926 
-0.266299 -0.0608407 -0.200259 -0.235805 -0.0419777 -0.198005 -0.230582 -0.0350573 -0.198314 
-0.225881 -0.026358 -0.19843 -0.223544 -0.0163959 -0.198122 -0.223574 -0.00215996 -0.199241 
-0.219929 0.00441976 -0.198636 -0.218069 0.0136225 -0.197192 -0.228025 0.0302965 -0.198456 
-0.225 -0.0334952 -0.193907 -0.207943 -0.012578 -0.192989 -0.211563 -0.00362423 -0.194109 
-0.212895 0.0107408 -0.194269 -0.215575 0.0164462 -0.194712 -0.214599 0.0240918 -0.194312 
-0.223243 0.0400862 -0.192548 -0.236523 0.0463933 -0.195554 -0.213347 -0.036011 -0.191011 
-0.211522 0.00127367 -0.191631 -0.209156 0.0225436 -0.191259 -0.20722 -0.0055112 -0.192277 
-0.206251 0.0169884 -0.190764 -0.207615 0.0148647 -0.182541 -0.204856 -0.00890456 -0.192039 
-0.205092 -0.0128386 -0.190209 -0.203663 0.0618127 -0.174869 -0.20267 -0.0024804 -0.190332 
-0.201334 0.00395203 -0.18977 -0.20156 -0.033699 -0.185547 -0.0611935 0.016259 -0.129935 
-0.0591461 0.0221068 -0.12912 -0.0909886 -0.00732541 -0.125335 -0.199706 -0.00695002 -0.189054 
-0.084633 -0.00808438 -0.127506 -0.0730132 0.00437704 -0.129035 -0.0500345 0.00989151 -0.126496 
-0.197181 0.0145022 -0.188317 -0.0677838 0.039346 -0.128907 -0.0481738 -0.00278973 -0.12567 
-0.199746 -0.0234718 -0.187349 -0.194917 -0.0113999 -0.187656 -0.195752 -0.00755088 -0.188076 
-0.192432 -0.00848903 -0.185888 -0.191531 -0.000972674 -0.185622 -0.186329 -0.00108639 -0.184507 
-0.187852 0.00188613 -0.185193 -0.193898 0.00547299 -0.187731 -0.198731 0.00919939 -0.18842 
-0.191851 0.00809995 -0.186677 -0.196571 0.0294023 -0.185591 -0.188509 -0.0154636 -0.183162 
-0.18203 -0.0131103 -0.182131 -0.18461 -0.00970384 -0.183602 -0.18247 0.00126186 -0.181802 
-0.186296 0.00560812 -0.183442 -0.0574008 0.0123957 -0.128712 -0.186008 0.0260164 -0.181911 
-0.189978 -0.0426305 -0.178125 -0.190198 -0.0108211 -0.180065 -0.191959 -0.00731524 -0.182055 
-0.177565 -0.00857897 -0.179584 -0.17072 -0.00370839 -0.177784 -0.178518 -0.00328493 -0.180076 
-0.177582 0.0012342 -0.180851 -0.172966 -0.000224439 -0.177807 -0.179125 0.00503244 -0.180455 
-0.177467 0.00903318 -0.180334 -0.180306 0.0120813 -0.180352 -0.174132 0.0118954 -0.178495 
-0.183042 0.0211658 -0.180488 -0.169539 -0.0290985 -0.174585 -0.168816 -0.00844543 -0.177022 
-0.163818 -0.00947927 -0.17479 -0.19007 -0.00539691 -0.178758 -0.176181 0.005672 -0.177812 
-0.165127 0.00527024 -0.175633 -0.165543 0.0180931 -0.174726 -0.169216 0.0246815 -0.175151 
-0.199348 0.0595942 -0.175752 -0.177348 -0.043609 -0.172705 -0.16883 -0.0334844 -0.172136 
-0.164614 -0.0246087 -0.173348 -0.160907 -0.00906921 -0.173386 -0.161937 -0.00438825 -0.173151 
-0.153793 -0.00503873 -0.170842 -0.151969 -0.00151786 -0.170095 -0.159657 0.00798227 -0.173153 
-0.162791 0.0151752 -0.173816 -0.178191 0.0504458 -0.171849 -0.0644416 0.0424234 -0.127887 
-0.161245 -0.0388683 -0.1687 -0.153146 -0.0203412 -0.168154 -0.147693 -0.0178996 -0.167283 
-0.149898 -0.0113114 -0.168847 -0.154418 -0.00957363 -0.169073 -0.147624 -0.00335214 -0.168298 
-0.156045 0.00193218 -0.170513 -0.148621 0.00497925 -0.168574 -0.148143 0.0126033 -0.167451 
-0.150792 0.0118687 -0.169086 -0.194139 0.013599 -0.169259 -0.155249 0.0136031 -0.169731 
-0.199172 0.0219555 -0.169037 -0.15765 0.0253582 -0.168265 -0.156112 0.0315187 -0.168389 
-0.16664 0.0411592 -0.170158 -0.186336 0.0630294 -0.169056 -0.141715 -0.014696 -0.165067 
-0.137875 -0.0162673 -0.163311 -0.147395 -0.0136478 -0.166508 -0.153167 -0.00927119 -0.163934 
-0.141144 -0.0110262 -0.165196 -0.141458 -0.00473132 -0.16563 -0.139356 -0.00640526 -0.164302 
-0.156961 -0.00130623 -0.166247 -0.13705 -0.00106592 -0.163851 -0.15432 0.00521229 -0.168643 
-0.157588 0.00589983 -0.166045 -0.145331 0.00504329 -0.16604 -0.146905 0.00996587 -0.16359 
-0.137404 0.00968621 -0.163644 -0.153358 0.0209469 -0.166038 -0.14235 0.0162759 -0.163867 
-0.145026 0.022798 -0.164419 -0.148672 0.0366449 -0.164225 -0.197105 0.0732606 -0.166139 
-0.131592 -0.0215773 -0.159996 -0.134559 -0.0170171 -0.161047 -0.129073 -0.0147101 -0.159801 
-0.135469 -0.0136338 -0.162561 -0.137983 -0.00987461 -0.162864 -0.131704 -0.00621685 -0.160374 
-0.12828 4.64388e-06 -0.159938 -0.135716 0.0014015 -0.160692 -0.139463 0.00431981 -0.1634 
-0.126982 0.00648056 -0.159344 -0.145696 0.0112418 -0.158799 -0.127738 0.0101522 -0.15946 
-0.139711 0.0213374 -0.163401 -0.137825 0.0261084 -0.161974 -0.138191 0.0315568 -0.160902 
-0.137886 0.0349016 -0.160021 -0.145173 -0.0501743 -0.158564 -0.129201 -0.0287513 -0.157872 
-0.121668 -0.0172873 -0.156414 -0.127157 -0.012286 -0.159161 -0.131583 -0.0133143 -0.157702 
-0.122115 -0.0142002 -0.156894 -0.125463 -0.00744213 -0.157708 -0.119705 -0.00742052 -0.156352 
-0.133704 -0.00296914 -0.156666 -0.123941 -0.00376235 -0.158289 -0.121712 0.00194951 -0.156265 
-0.124603 0.00350147 -0.158561 -0.13794 0.0130908 -0.157763 -0.124583 0.00953561 -0.157083 
-0.130546 0.0144166 -0.15937 -0.124659 0.0147882 -0.156797 -0.129232 0.022838 -0.157666 
-0.135092 0.0328605 -0.158642 -0.126911 0.0311389 -0.156413 -0.124622 -0.0193912 -0.154926 
-0.119168 -0.0191446 -0.153542 -0.131389 -0.0118961 -0.153682 -0.118308 -0.0132533 -0.154277 
-0.114242 -0.00812038 -0.152907 -0.115325 -0.00343946 -0.154635 -0.118404 -0.000240143 -0.154776 
-0.112981 -0.00185478 -0.153616 -0.120332 0.00937351 -0.153701 -0.12119 0.0172936 -0.154212 
-0.114053 0.0150616 -0.153404 -0.144088 0.0200164 -0.154447 -0.120045 -0.0428238 -0.150607 
-0.112746 -0.0334927 -0.149902 -0.114643 -0.0209912 -0.152919 -0.103259 -0.0204672 -0.148254 
-0.108987 -0.00825193 -0.150681 -0.106028 -0.0111459 -0.150334 -0.103164 -0.00391631 -0.149483 
[...]
POINT_DATA 646
FIELD FieldData 7
id 1 646 int
9 124 16 30 34 31 19 3 26 
68 32 2 27 7 108 22 1 99 
33 21 5 6 60 23 13 36 10 
41 28 11 38 58 92 57 79 40 
8 63 142 54 42 101 130 48 4 
53 46 14 67 88 49 29 122 44 
162 83 134 45 43 93 59 20 62 
15 50 100 87 85 72 126 76 18 
132 148 75 104 116 69 51 70 71 
114 109 84 35 17 52 166 47 64 
156 158 174 177 147 39 61 74 112 
12 94 181 192 77 65 145 133 73 
154 37 233 91 163 125 96 111 25 
55 82 95 146 120 103 167 175 187 
200 138 136 150 118 98 176 245 196 
188 182 157 81 137 86 110 89 244 
143 274 222 231 186 90 227 66 198 
140 139 159 257 80 78 105 270 144 
203 216 128 153 268 383 410 425 204 
393 388 478 97 356 397 232 224 209 
228 202 123 185 121 127 135 113 171 
194 170 243 141 407 161 165 281 234 
191 211 117 155 102 164 259 178 262 
215 287 218 219 246 239 180 206 271 
265 230 129 119 252 152 149 236 260 
131 238 477 290 205 275 208 214 172 
282 314 288 220 304 151 327 278 258 
199 183 251 212 189 254 250 284 106 
302 207 309 277 289 279 160 292 318 
223 210 201 315 286 249 221 115 193 
308 307 190 310 300 197 184 299 311 
325 347 320 313 169 295 225 217 235 
272 168 240 333 293 269 266 267 256 
301 323 312 179 317 229 253 247 379 
285 305 242 261 342 107 348 365 237 
241 321 273 331 345 329 322 226 280 
352 324 355 337 328 316 372 248 338 
335 374 326 297 330 341 291 370 283 
173 213 294 255 381 371 359 349 380 
389 264 334 392 332 319 350 303 336 
344 296 358 276 394 298 354 373 405 
339 362 404 413 396 400 351 387 376 
340 385 375 378 395 382 384 369 432 
398 346 391 343 306 367 409 363 364 
412 446 408 403 419 390 418 648 636 
647 639 643 646 479 644 640 353 641 
368 430 453 415 441 366 445 642 492 
414 421 417 638 422 464 434 360 361 
426 399 452 437 402 450 469 386 357 
427 466 490 472 465 475 435 416 431 
463 195 406 468 486 460 423 377 428 
493 454 482 476 448 461 483 480 481 
443 411 436 401 449 457 499 433 487 
447 424 420 491 442 484 429 485 444 
500 503 502 473 489 458 504 470 462 
467 459 501 488 440 451 438 474 439 
497 471 496 455 494 498 506 456 505 
495 509 510 263 512 518 515 517 513 
508 507 519 514 526 516 511 531 524 
523 530 525 528 532 529 522 520 527 
521 537 534 540 538 542 535 543 545 
539 544 541 553 536 550 533 549 555 
551 552 546 557 547 554 556 548 565 
570 563 558 561 560 568 567 566 559 
569 562 564 577 583 573 578 580 582 
572 575 576 574 581 571 594 579 596 
593 591 592 584 586 588 589 595 585 
590 587 602 607 608 603 599 601 600 
604 597 606 609 605 617 618 619 621 
598 614 620 615 622 616 610 612 611 
628 623 613 630 625 635 634 632 627 
629 626 633 624 631 637 645 
type 1 646 int
1 1 1 1 1 1 1 1 1 
1 1 1 1 1 1 1 1 1 
1 1 1 1 1 1 1 1 1 
1 1 1 1 1 1 1 1 1 
1 1 1 1 1 1 1 1 1 
1 1 1 1 1 1 1 1 1 
1 1 1 1 1 1 1 1 1 
1 1 1 1 1 1 1 1 1 
1 1 1 1 1 1 1 1 1 
1 1 1 1 1 1 1 1 1 
1 1 1 1 1 1 1 1 1 
1 1 1 1 1 1 1 1 1 
1 1 1 1 1 1 1 1 1 
1 1 1 1 1 1 1 1 1 
1 1 1 1 1 1 1 1 1 
1 1 1 1 1 1 1 1 1 
1 1 1 1 1 1 1 1 1 
1 1 1 1 1 1 1 1 1 
1 1 1 1 1 1 1 1 1 
1 1 1 1 1 1 1 1 1 
1 1 1 1 1 1 1 1 1 
1 1 1 1 1 1 1 1 1 
1 1 1 1 1 1 1 1 1 
1 1 1 1 1 1 1 1 1 
1 1 1 1 1 1 1 1 1 
1 1 1 1 1 1 1 1 1 
1 1 1 1 1 1 1 1 1 
1 1 1 1 1 1 1 1 1 
1 1 1 1 1 1 1 1 1 
1 1 1 1 1 1 1 1 1 
1 1 1 1 1 1 1 1 1 
1 1 1 1 1 1 1 1 1 
1 1 1 1 1 1 1 1 1 
1 1 1 1 1 1 1 1 1 
1 1 1 1 1 1 1 1 1 
1 1 1 1 1 1 1 1 1 
1 1 1 1 1 1 1 1 1 
1 1 1 1 1 1 1 1 1 
1 1 1 1 1 1 1 1 1 
1 1 1 1 1 1 1 1 1 
1 1 1 1 1 1 1 1 1 
1 1 1 1 1 1 1 1 1 
1 1 1 1 1 1 1 1 1 
1 1 1 1 1 1 1 1 1 
1 1 1 1 1 1 1 1 1 
1 1 1 1 1 1 1 1 1 
1 1 1 1 1 1 1 1 1 
1 1 1 1 1 1 1 1 1 
1 1 1 1 1 1 1 1 1 
1 1 1 1 1 1 1 1 1 
1 1 1 1 1 1 1 1 1 
1 1 1 1 1 1 1 1 1 
1 1 1 1 1 1 1 1 1 
1 1 1 1 1 1 1 1 1 
1 1 1 1 1 1 1 1 1 
1 1 1 1 1 1 1 1 1 
1 1 1 1 1 1 1 1 1 
1 1 1 1 1 1 1 1 1 
1 1 1 1 1 1 1 1 1 
1 1 1 1 1 1 1 1 1 
1 1 1 1 1 1 1 1 1 
1 1 1 1 1 1 1 1 1 
1 1 1 1 1 1 1 1 1 
1 1 1 1 1 1 1 1 1 
1 1 1 1 1 1 1 1 1 
1 1 1 1 1 1 1 1 1 
1 1 1 1 1 1 1 1 1 
1 1 1 1 1 1 1 1 1 
1 1 1 1 1 1 1 1 1 
1 1 1 1 1 1 1 1 1 
1 1 1 1 1 1 1 1 1 
1 1 1 1 1 1 1 
i 3 646 int
0 0 0 0 0 0 0 0 0 
0 0 0 0 0 0 0 0 0 
0 0 0 0 0 0 0 0 0 
0 0 0 0 0 0 0 0 0 
0 0 0 0 0 0 0 0 0 
0 0 0 0 0 0 0 0 0 
0 0 0 0 0 0 0 0 0 
0 0 0 0 0 0 0 0 0 
0 0 0 0 0 0 0 0 0 
0 0 0 0 0 0 0 0 0 
0 0 0 0 0 0 0 0 0 
0 0 0 0 0 0 0 0 0 
0 0 0 0 0 0 0 0 0 
0 0 0 0 0 0 0 0 0 
0 0 0 0 0 0 0 0 0 
0 0 0 0 0 0 0 0 0 
0 0 0 0 0 0 0 0 0 
0 0 0 0 0 0 0 0 0 
0 0 0 0 0 0 0 0 0 
0 0 0 0 0 0 0 0 0 
0 0 0 0 0 0 0 0 0 
0 0 0 0 0 0 0 0 0 
0 0 0 0 0 0 0 0 0 
0 0 0 0 0 0 0 0 0 
0 0 0 0 0 0 0 0 0 
0 0 0 0 0 0 0 0 0 
0 0 0 0 0 0 0 0 0 
0 0 0 0 0 0 0 0 0 
0 0 0 0 0 0 0 0 0 
0 0 0 0 0 0 0 0 0 
0 0 0 0 0 0 0 0 0 
0 0 0 0 0 0 0 0 0 
0 0 0 0 0 0 0 0 0 
0 0 0 0 0 0 0 0 0 
0 0 0 0 0 0 0 0 0 
0 0 0 0 0 0 0 0 0 
0 0 0 0 0 0 0 0 0 
0 0 0 0 0 0 0 0 0 
0 0 0 0 0 0 0 0 0 
0 0 0 0 0 0 0 0 0 
0 0 0 0 0 0 0 0 0 
0 0 0 0 0 0 0 0 0 
0 0 0 0 0 0 0 0 0 
0 0 0 0 0 0 0 0 0 
0 0 0 0 0 0 0 0 0 
0 0 0 0 0 0 0 0 0 
0 0 0 0 0 0 0 0 0 
0 0 0 0 0 0 0 0 0 
0 0 0 0 0 0 0 0 0 
0 0 0 0 0 0 0 0 0 
0 0 0 0 0 0 0 0 0 
0 0 0 0 0 0 0 0 0 
0 0 0 0 0 0 0 0 0 
0 0 0 0 0 0 0 0 0 
0 0 0 0 0 0 0 0 0 
0 0 0 0 0 0 0 0 0 
0 0 0 0 0 0 0 0 0 
0 0 0 0 0 0 0 0 0 
0 0 0 0 0 0 0 0 0 
0 0 0 0 0 0 0 0 0 
0 0 0 0 0 0 0 0 0 
0 0 0 0 0 0 0 0 0 
0 0 0 0 0 0 0 0 0 
0 0 0 0 0 0 0 0 0 
0 0 0 0 0 0 0 0 0 
0 0 0 0 0 0 0 0 0 
0 0 0 0 0 0 0 0 0 
0 0 0 0 0 0 0 0 0 
0 0 0 0 0 0 0 0 0 
0 0 0 0 0 0 0 0 0 
0 0 0 0 0 0 0 0 0 
0 0 0 0 0 0 0 0 0 
0 0 0 0 0 0 0 0 0 
0 0 0 0 0 0 0 0 0 
0 0 0 0 0 0 0 0 0 
0 0 0 0 0 0 0 0 0 
0 0 0 0 0 0 0 0 0 
0 0 0 0 0 0 0 0 0 
0 0 0 0 0 0 0 0 0 
0 0 0 0 0 0 0 0 0 
0 0 0 0 0 0 0 0 0 
0 0 0 0 0 0 0 0 0 
0 0 0 0 0 0 0 0 0 
0 0 0 0 0 0 0 0 0 
0 0 0 0 0 0 0 0 0 
0 0 0 0 0 0 0 0 0 
0 0 0 0 0 0 0 0 0 
0 0 0 0 0 0 0 0 0 
0 0 0 0 0 0 0 0 0 
0 0 0 0 0 0 0 0 0 
0 0 0 0 0 0 0 0 0 
0 0 0 0 0 0 0 0 0 
0 0 0 0 0 0 0 0 0 
0 0 0 0 0 0 0 0 0 
0 0 0 0 0 0 0 0 0 
0 0 0 0 0 0 0 0 0 
0 0 0 0 0 0 0 0 0 
0 0 0 0 0 0 0 0 0 
0 0 0 0 0 0 0 0 0 
0 0 0 0 0 0 0 0 0 
0 0 0 0 0 0 0 0 0 
0 0 0 0 0 0 0 0 0 
0 0 0 0 0 0 0 0 0 
0 0 0 0 0 0 0 0 0 
0 0 0 0 0 0 0 0 0 
0 0 0 0 0 0 0 0 0 
0 0 0 0 0 0 0 0 0 
0 0 0 0 0 0 0 0 0 
0 0 0 0 0 0 0 0 0 
0 0 0 0 0 0 0 0 0 
0 0 0 0 0 0 0 0 0 
0 0 0 0 0 0 0 0 0 
0 0 0 0 0 0 0 0 0 
0 0 0 0 0 0 0 0 0 
0 0 0 0 0 0 0 0 0 
0 0 0 0 0 0 0 0 0 
0 0 0 0 0 0 0 0 0 
0 0 0 0 0 0 0 0 0 
0 0 0 0 0 0 0 0 0 
0 0 0 0 0 0 0 0 0 
0 0 0 0 0 0 0 0 0 
0 0 0 0 0 0 0 0 0 
0 0 0 0 0 0 0 0 0 
0 0 0 0 0 0 0 0 0 
0 0 0 0 0 0 0 0 0 
0 0 0 0 0 0 0 0 0 
0 0 0 0 0 0 0 0 0 
0 0 0 0 0 0 0 0 0 
0 0 0 0 0 0 0 0 0 
0 0 0 0 0 0 0 0 0 
0 0 0 0 0 0 0 0 0 
0 0 0 0 0 0 0 0 0 
0 0 0 0 0 0 0 0 0 
0 0 0 0 0 0 0 0 0 
0 0 0 0 0 0 0 0 0 
0 0 0 0 0 0 0 0 0 
0 0 0 0 0 0 0 0 0 
0 0 0 0 0 0 0 0 0 
0 0 0 0 0 0 0 0 0 
0 0 0 0 0 0 0 0 0 
0 0 0 0 0 0 0 0 0 
0 0 0 0 0 0 0 0 0 
0 0 0 0 0 0 0 0 0 
0 0 0 0 0 0 0 0 0 
0 0 0 0 0 0 0 0 0 
0 0 0 0 0 0 0 0 0 
0 0 0 0 0 0 0 0 0 
0 0 0 0 0 0 0 0 0 
0 0 0 0 0 0 0 0 0 
0 0 0 0 0 0 0 0 0 
0 0 0 0 0 0 0 0 0 
0 0 0 0 0 0 0 0 0 
0 0 0 0 0 0 0 0 0 
0 0 0 0 0 0 0 0 0 
0 0 0 0 0 0 0 0 0 
0 0 0 0 0 0 0 0 0 
0 0 0 0 0 0 0 0 0 
0 0 0 0 0 0 0 0 0 
0 0 0 0 0 0 0 0 0 
0 0 0 0 0 0 0 0 0 
0 0 0 0 0 0 0 0 0 
0 0 0 0 0 0 0 0 0 
0 0 0 0 0 0 0 0 0 
0 0 0 0 0 0 0 0 0 
0 0 0 0 0 0 0 0 0 
0 0 0 0 0 0 0 0 0 
0 0 0 0 0 0 0 0 0 
0 0 0 0 0 0 0 0 0 
0 0 0 0 0 0 0 0 0 
0 0 0 0 0 0 0 0 0 
0 0 0 0 0 0 0 0 0 
0 0 0 0 0 0 0 0 0 
0 0 0 0 0 0 0 0 0 
0 0 0 0 0 0 0 0 0 
0 0 0 0 0 0 0 0 0 
0 0 0 0 0 0 0 0 0 
0 0 0 0 0 0 0 0 0 
0 0 0 0 0 0 0 0 0 
0 0 0 0 0 0 0 0 0 
0 0 0 0 0 0 0 0 0 
0 0 0 0 0 0 0 0 0 
0 0 0 0 0 0 0 0 0 
0 0 0 0 0 0 0 0 0 
0 0 0 0 0 0 0 0 0 
0 0 0 0 0 0 0 0 0 
0 0 0 0 0 0 0 0 0 
0 0 0 0 0 0 0 0 0 
0 0 0 0 0 0 0 0 0 
0 0 0 0 0 0 0 0 0 
0 0 0 0 0 0 0 0 0 
0 0 0 0 0 0 0 0 0 
0 0 0 0 0 0 0 0 0 
0 0 0 0 0 0 0 0 0 
0 0 0 0 0 0 0 0 0 
0 0 0 0 0 0 0 0 0 
0 0 0 0 0 0 0 0 0 
0 0 0 0 0 0 0 0 0 
0 0 0 0 0 0 0 0 0 
0 0 0 0 0 0 0 0 0 
0 0 0 0 0 0 0 0 0 
0 0 0 0 0 0 0 0 0 
0 0 0 0 0 0 0 0 0 
0 0 0 0 0 0 0 0 0 
0 0 0 0 0 0 0 0 0 
0 0 0 0 0 0 0 0 0 
0 0 0 0 0 0 0 0 0 
0 0 0 0 0 0 0 0 0 
0 0 0 0 0 0 0 0 0 
0 0 0 0 0 0 0 0 0 
0 0 0 0 0 0 0 0 0 
0 0 0 0 0 0 0 0 0 
0 0 0 0 0 0 0 0 0 
0 0 0 0 0 0 0 0 0 
0 0 0 0 0 0 0 0 0 
0 0 0 0 0 0 0 0 0 
0 0 0 
v 3 646 double
-1.4389 -0.122754 -1.69117 -0.949322 -0.175533 -0.498637 -1.38458 0.0121135 -1.48414 
-1.31226 0.152563 -1.37971 -1.39956 0.0102656 -1.41021 -1.33504 -0.0723053 -1.3919 
-1.14656 0.0761887 -1.22328 -1.35171 0.195162 -1.27925 -1.34235 -0.114898 -1.30641 
-1.2104 -0.111715 -1.32473 -1.29371 0.154395 -1.16467 -1.12274 0.0154003 -1.10699 
-1.37864 0.0410424 -1.20948 -1.28265 -0.0239591 -1.004 -1.34684 0.255768 -1.13242 
-1.14007 0.0619945 -0.977468 -1.26435 0.0221371 -1.04574 -1.29568 0.280331 -1.11238 
-1.18685 -0.0202596 -0.97853 -1.27086 -0.0159577 -0.944983 -1.25753 0.0630385 -0.925254 
-1.17123 0.0260053 -0.886356 -1.17479 0.0230187 -0.872954 -1.20375 0.00503665 -0.824932 
-1.21196 0.0390049 -0.783293 -1.08435 0.0642844 -0.769029 -1.116 0.019221 -0.713052 
-1.24643 -0.117866 -0.795568 -1.2302 0.00574051 -0.807588 -1.22067 0.0285474 -0.813 
-1.0323 0.152826 -0.752841 -1.28551 0.102613 -0.908223 -1.34796 0.269572 -0.771878 
-1.22662 -0.116708 -0.73203 -1.10241 -0.0910185 -0.629318 -1.19979 -0.0555813 -0.658925 
-1.22068 -0.298572 -0.759867 -0.973525 -0.054984 -0.455364 -1.36559 -0.0590547 -1.12685 
-1.08092 -0.0613343 -0.537902 -1.07951 0.0100131 -0.500701 -1.20344 -0.0768672 -0.624241 
-1.37075 -0.249623 -0.720426 -1.19319 -0.0892842 -0.631555 -1.31844 0.0999611 -0.536918 
-0.911776 -0.0533079 -0.376475 -1.16587 -0.0532897 -0.494795 -1.19664 -0.115357 -0.511855 
-1.27845 0.170664 -0.616755 -1.13895 0.060602 -0.489585 -1.18541 0.0778798 -0.488024 
-1.1407 0.050957 -0.477586 -0.914297 -0.0690024 -0.389701 -1.15588 -0.0992777 -0.492377 
-1.11602 0.0229093 -0.359233 -1.10746 0.0916846 -0.455493 -0.925131 -0.0277119 -0.390419 
-1.04027 0.0581671 -0.444953 -1.11321 -0.0326495 -0.471044 -1.19965 -0.0141507 -0.492196 
-1.19046 -0.302419 -0.59058 -1.08615 0.24832 -0.49963 -1.19809 0.220815 -0.519669 
-1.0942 0.0157735 -0.461414 -1.09841 -0.00360742 -0.461729 -1.00701 0.0164712 -0.425685 
-1.00918 0.00986991 -0.424698 -1.07269 -0.0910121 -0.457722 -0.955632 0.0383677 -0.388113 
-1.19839 0.239857 -0.768565 -1.1909 0.180883 -0.537375 -1.04159 -0.0439446 -0.43363 
-0.963891 -0.166962 -0.40076 -1.05977 -0.0899001 -0.456737 -1.26854 -0.144443 -0.562163 
-1.19393 0.176078 -0.574315 -0.924112 -0.0305598 -0.384532 -1.01526 0.00380626 -0.430636 
-1.03951 0.0483401 -0.426334 -1.05898 -0.0374991 -0.446392 -1.12988 -0.0252497 -0.496972 
-1.26049 0.00623526 -0.532381 -0.759535 -0.11488 -0.304973 -0.810181 0.0234177 -0.341266 
-0.838787 0.0636426 -0.358436 -1.01049 0.00978032 -0.428367 -0.933972 0.0133117 -0.395841 
-0.961211 -0.0805761 -0.392594 -0.937761 0.00424052 -0.390037 -0.954532 -0.0001838 -0.399337 
-0.835367 -0.0216174 -0.349662 -1.03321 0.111515 -0.436901 -1.00918 0.101017 -0.417742 
-1.10096 0.00383032 -0.454575 -1.01678 -0.0978047 -0.440902 -0.968554 -0.0484106 -0.362689 
-1.03953 0.00993077 -0.477865 -0.862714 -0.00677929 -0.372816 -0.755389 -0.0648794 -0.291329 
-0.884041 0.0653352 -0.379332 -0.914367 0.0273807 -0.42049 -1.16178 -0.0507698 -0.61302 
-1.09506 -0.0318158 -0.442641 -1.05597 -0.0218059 -0.450143 -0.891922 -0.0149705 -0.378507 
-0.878708 -0.0401558 -0.378274 -0.822525 0.096761 -0.349445 -0.843049 -0.0256324 -0.280364 
-1.11547 -0.07696 -0.48288 -1.03139 -0.0210602 -0.441596 -1.26184 0.135315 -0.476899 
-0.802302 0.0530587 -0.25258 -1.15101 0.23159 -0.551022 -0.600672 -0.00697957 -0.223981 
-0.926403 0.0617447 -0.38696 -0.956079 0.0704093 -0.367975 -1.02498 0.0724266 -0.435116 
-0.947957 -0.0529385 -0.399028 -1.01932 -0.0239817 -0.434818 -0.999649 -0.0160266 -0.421564 
-1.19689 0.0463827 -0.485269 -1.11203 0.12027 -0.477885 -0.831998 -0.0824634 -0.115696 
-0.950237 0.0445697 -0.338683 -1.0138 0.000153606 -0.404591 -0.856945 -0.126269 -0.335183 
-0.976279 -0.152853 -0.393289 -1.02519 -0.175548 -0.411826 -0.929466 -0.0640449 -0.399538 
-0.875548 -0.0315629 -0.363676 -0.98599 -0.00798557 -0.420612 -1.06033 -0.0977596 -0.452457 
-0.94152 0.00403471 -0.399789 -1.2008 0.220684 -0.56082 -0.876635 0.140845 -0.388143 
-1.14464 0.0519905 -0.516423 -0.966927 0.0135142 -0.405522 -1.05657 -0.0726386 -0.440969 
-1.02545 0.259567 -0.558732 -0.963068 0.200516 -0.463689 -0.997421 0.272038 -0.490696 
-0.975973 0.184475 -0.45538 -0.96728 -0.087245 -0.415463 -0.959262 0.174079 -0.362964 
-0.964509 -0.0774158 -0.402942 -0.954625 -0.0375422 -0.41001 -1.08463 -0.00914603 -0.38493 
-1.04969 -0.134877 -0.494251 -0.941197 0.00654432 -0.31277 -0.827945 0.0245462 -0.353536 
-0.769605 0.0230745 -0.315563 -0.899523 -0.0376434 -0.376276 -0.715937 0.128838 -0.273251 
-0.830035 0.0516021 -0.32361 -0.956236 0.0464038 -0.357505 -1.00513 -0.0596344 -0.410765 
-0.984278 0.177783 -0.587147 -0.966262 -0.0011522 -0.412815 -0.83723 -0.00367691 -0.3597 
-0.933463 0.0371051 -0.394815 -1.08769 0.00294689 -0.222498 -0.659424 0.0492181 -0.274512 
-0.994663 -0.147531 -0.140438 -1.03708 -0.129924 -0.46693 -0.816365 -0.0818923 -0.349862 
-0.698506 -0.0231759 -0.297919 -1.04475 -0.205203 -0.376862 -0.698827 0.237697 -0.262116 
-0.580338 -0.0887699 -0.496541 -0.872001 -0.093485 -0.0915979 -0.947696 -0.020913 -0.40677 
-0.769796 -0.103925 -0.516522 -0.701583 -0.0896779 -0.7468 -0.462962 0.0505029 -0.221671 
-0.764163 0.021771 -0.313478 -0.676507 0.0349306 -0.257766 -0.712653 0.158788 -0.340176 
-0.833459 -0.146868 -0.41795 -0.802392 -0.0887052 -0.319864 -0.859367 0.0392936 -0.511483 
-0.898954 0.0673551 -0.369663 -0.784168 0.0279139 -0.327933 -0.714093 -0.0741836 -0.305117 
-0.679303 -0.0226657 -0.281341 -0.802298 -0.00654808 -0.333524 -0.85785 -0.0268784 -0.353131 
-0.823813 0.104666 -0.342069 -0.840583 -0.133492 -0.388856 -0.942255 -0.0160329 -0.228297 
-0.870939 -0.0654076 -0.351979 -0.832213 -0.0488903 -0.340089 -0.706669 -0.0385741 -0.337767 
-0.70858 0.0506444 -0.296354 -0.715653 0.0585657 -0.28641 -0.784089 0.00115393 -0.329828 
-0.846127 -0.0313104 -0.340865 -1.14068 0.255327 -0.229375 -1.12925 0.335399 -0.37006 
-0.830994 -0.0395268 -0.341519 -0.736405 -0.0785893 -0.297542 -0.78711 -0.0084166 -0.329751 
-0.796958 -0.0324449 -0.33301 -0.789042 -0.0728846 -0.32253 -0.790631 -0.0432445 -0.328406 
-0.729325 -0.0164941 -0.272213 -0.890647 -0.0749625 -0.385684 -0.827944 -0.165086 -0.420171 
-0.802567 -0.0778633 -0.622457 -0.877445 -0.161013 -0.331434 -0.708746 -0.0275293 -0.30064 
-0.722653 -0.0485054 -0.30552 -1.15845 -0.0340336 -0.538388 -0.708757 0.120919 -0.423114 
-0.801432 0.0139843 -0.33654 -0.755292 0.0336641 -0.312453 -0.625862 0.0258421 -0.258756 
-0.720057 -0.0630222 -0.30201 -0.78254 0.00264231 -0.303398 -0.706433 0.0497622 -0.290652 
-0.694032 0.264729 -0.327376 -0.723823 0.0299627 -0.321348 -0.764118 -0.0171499 -0.314612 
-0.647288 0.0224145 -0.278201 -0.509149 0.0730308 -0.208568 -0.723078 0.00261957 -0.296313 
-0.775914 0.0110918 -0.315903 -1.00795 0.0394075 -0.39389 -0.537558 0.533566 -0.0112688 
-0.997471 -0.0883814 -0.355191 -0.800882 -0.0881008 -0.320175 -0.791162 -0.0975024 -0.311687 
-0.613879 0.00855398 -0.255284 -0.778483 -0.132387 -0.405799 -0.523574 0.029012 -0.22062 
-0.839997 0.0615441 -0.515726 -0.889274 0.0527024 -0.385853 -0.802499 0.236725 -0.337106 
-0.797723 -0.075253 -0.337964 -1.4231 -0.13074 -0.520022 -0.855591 -0.146975 -0.381819 
-1.02611 0.170517 -0.541055 -0.634091 0.084183 -0.427456 -0.813008 0.168833 -0.301476 
-0.797484 -0.0473795 -0.337273 -0.74523 -0.0132726 -0.294098 -0.721643 0.0130645 -0.318089 
-0.745273 0.0258744 -0.310926 -0.651449 -0.0769966 -0.278319 -0.680511 -0.109011 -0.393127 
-0.665132 -0.074431 -0.276337 -0.623026 0.0391733 -0.251267 -0.663229 -0.0910551 -0.29029 
-0.882695 0.066339 -0.448939 -0.629988 -0.0472683 -0.293288 -0.966221 0.255279 -0.575965 
-0.995843 0.121717 -0.625374 -0.922524 0.150364 -0.620846 -0.854056 0.0814452 -0.303691 
-0.504395 0.112219 -0.20267 -1.05566 0.36776 -0.409661 -0.909915 0.115792 -0.401602 
-1.02577 0.361126 -0.359484 -0.845271 0.00529991 -0.324782 -0.950365 -0.230957 -0.52984 
-0.626429 -0.028186 -0.262354 -0.627894 -0.152505 -0.327673 -0.637038 -0.0177232 -0.27116 
-0.61061 -0.0870758 -0.244581 -0.678703 -0.128548 -0.261378 -0.694914 -0.00167069 -0.286196 
-0.69388 0.0549386 -0.31252 -0.727118 0.0432417 -0.251655 -0.77656 -0.0179226 -0.396678 
-0.539612 0.129153 -0.212953 -0.939632 0.16724 -0.174042 -0.566878 0.0211652 -0.244211 
-0.77675 0.0427317 -0.330546 -0.767079 0.0867028 -0.320734 -0.68578 0.0166904 -0.271818 
-0.665032 0.0118326 -0.265775 -1.0488 -0.0786826 -0.358018 -0.710812 -0.203067 -0.252691 
-0.660378 -0.0173427 -0.297261 -0.665425 -0.0312585 -0.282537 -1.01647 0.0237202 -0.412875 
-0.662489 0.00497404 -0.278317 -0.644243 0.000180521 -0.275795 -0.652839 0.00979335 -0.276962 
-1.02161 0.166315 -0.288956 -0.606478 -0.00705999 -0.256356 -0.622612 -0.00743322 -0.276346 
-0.62957 -0.000710643 -0.258176 -0.89499 0.292026 -0.404566 -0.579675 0.0288043 -0.23513 
-0.662033 0.0128896 -0.286469 -0.59914 0.0334761 -0.261819 -0.713839 0.0916411 -0.277239 
-0.966263 0.268579 -0.361023 -0.650794 -0.035184 -0.27698 -0.805759 -0.147916 -0.418582 
-0.612521 0.0167335 -0.22653 -0.842467 -0.0231154 -0.336746 -0.670351 -0.0411808 -0.278023 
-0.549223 -0.0638853 -0.228135 -0.575185 -0.0413566 -0.241855 -0.629458 -0.0237115 -0.0513261 
-0.573849 -0.0361766 -0.227111 -0.622435 -0.0343252 -0.308177 -0.61325 0.10059 -0.306792 
-0.698957 -0.0991562 -0.302635 -0.982782 0.130554 -0.451231 -0.684653 0.271526 -0.368637 
-0.888079 -0.161088 -0.286407 -0.741675 -0.0805626 -0.294002 -0.478885 -0.0194388 -0.197381 
-0.522945 -0.104179 -0.212492 -0.634917 -0.0706539 -0.261707 -0.535614 -0.105886 -0.206873 
-0.573688 -0.0438472 -0.238618 -0.858586 -0.0247753 -0.956474 -0.580706 -0.0379361 -0.238906 
-0.664996 0.110689 -0.215273 -0.518604 -0.0210844 -0.225564 -0.646509 -0.115806 -0.279184 
-0.668978 0.0634134 -0.293335 -0.729001 -0.050606 -0.315046 -0.872159 -0.00469628 -0.259208 
-0.852462 -0.146026 -0.601957 -0.656161 0.190489 -0.262899 -0.610837 -0.00652563 -0.279605 
-0.926775 -0.134147 -0.673656 -0.492995 -0.0818361 -0.205208 -0.54523 0.116469 -0.288546 
-0.597378 0.0165012 -0.273317 -0.650493 -0.0512253 -0.161625 -0.453677 -0.0193928 -0.188522 
-0.786399 -0.0787107 -0.407168 -0.610512 -0.0249896 -0.159893 -0.874535 -0.0669522 -0.0345515 
-0.572417 -0.134284 -0.23623 -0.689098 0.237336 -0.278701 -0.54651 -0.090627 -0.238971 
-0.655962 -0.038961 -0.281542 -0.672206 -0.0309409 -0.287394 -0.544196 0.100952 -0.20237 
-0.623413 0.0614701 -0.276921 -0.842462 -0.0146975 -0.226024 -0.56125 -0.0802257 -0.227206 
-0.793553 -0.243616 -0.167692 -0.657826 -0.241598 -0.201076 -0.717133 0.0434821 -0.304147 
-0.683464 0.112427 -0.289202 -0.737615 0.161763 -0.467681 -0.592758 0.0325294 -0.244807 
-0.854954 -0.0987829 -0.371775 -0.703897 -0.0312095 -0.299802 -0.693205 0.0141203 -0.282509 
-0.645797 -0.0907629 -0.25255 -0.725813 0.0610428 -0.311195 -0.552658 -0.0766708 -0.308929 
-0.81399 0.0497519 -0.663072 -0.504488 0.0151625 -0.212103 -0.796952 -0.156555 -0.400786 
-0.430733 0.0513311 -0.182951 -0.625166 -0.0340051 -0.262383 -0.683747 0.0928664 -0.276683 
-0.652026 -0.0875201 -0.284039 -0.924505 -0.0240308 -0.815019 -0.719753 -0.0430771 -0.289869 
-0.635898 0.0757506 -0.266358 -0.76477 0.0203683 -0.420844 -0.647414 0.320931 -0.213121 
-0.925457 0.000283645 -0.582173 -0.920229 0.206171 -0.412579 -0.780912 0.334578 -0.323699 
-0.46894 -0.0549509 -0.171895 -0.527105 -0.0990611 -0.10661 -0.843633 -0.223266 -0.451607 
-0.529963 -0.100761 -0.207023 -0.549018 -0.122434 -0.187394 -0.549665 -0.122433 -0.235166 
-0.94619 -0.131081 -0.659103 -0.533126 -0.0275919 -0.466622 -0.664431 -0.21715 -0.286157 
-0.682979 -0.0175172 -0.635694 -0.641535 -0.0261089 -0.245662 -0.618608 0.181143 -0.295288 
-0.49314 -0.36852 -0.528511 -0.805838 0.0231037 -0.601423 -0.789581 -0.0730494 -0.90145 
-0.510262 0.139779 -0.222243 -0.692628 0.0521041 -0.400385 -0.664024 0.132188 -0.385556 
-0.550441 0.188426 -0.195225 -0.447547 0.0825578 -0.193117 -0.471151 0.031053 -0.129449 