# vtk DataFile Version 4.0
Generated by LIGGGHTS
ASCII
DATASET POLYDATA
POINTS 763 float
-0.202658 -0.00236461 -0.190942 -0.204053 -0.0245325 -0.189803 -0.491594 0.034709 -0.396943 
-0.481743 0.00574013 -0.394385 -0.469673 0.0163966 -0.394138 -0.490303 0.027018 -0.395593 
-0.484695 0.00674821 -0.39166 -0.479406 0.0636327 -0.388497 -0.469657 -0.012181 -0.384217 
-0.475432 -0.00774819 -0.383924 -0.488128 0.015419 -0.385448 -0.470481 -0.00838166 -0.381835 
-0.479278 -0.00768556 -0.373591 -0.461264 -0.0331385 -0.368451 -0.465225 -0.000877675 -0.371022 
-0.46101 -0.00361681 -0.36501 -0.461477 0.0159752 -0.364464 -0.480396 -0.0368344 -0.360528 
-0.443011 -0.00636233 -0.353763 -0.453777 -0.00876546 -0.35065 -0.46092 -0.00490205 -0.349159 
-0.439201 0.00369289 -0.349066 -0.427205 -0.0136042 -0.342498 -0.44507 -0.00470718 -0.344417 
-0.449849 0.0045643 -0.342663 -0.4397 -0.00363785 -0.341222 -0.438627 0.00235485 -0.339956 
-0.418777 -0.0119069 -0.337704 -0.436916 -0.00095174 -0.331744 -0.450457 0.029032 -0.334784 
-0.431736 0.00592269 -0.330217 -0.434101 -0.0109642 -0.324821 -0.432321 0.0102315 -0.324994 
-0.426367 -0.00284058 -0.323866 -0.42517 0.0160708 -0.322646 -0.420105 -0.0166971 -0.320343 
-0.427526 -0.0109579 -0.317274 -0.427733 -0.00584857 -0.317989 -0.404341 -0.00428484 -0.317764 
-0.420865 0.00167168 -0.318748 -0.419687 0.00916686 -0.318474 -0.413304 0.00996818 -0.313496 
-0.41419 -0.00597124 -0.310355 -0.398121 -0.00035818 -0.312999 -0.415622 -0.0101273 -0.308883 
-0.408067 0.00519807 -0.307259 -0.409359 0.0120582 -0.309132 -0.42482 0.0342262 -0.309389 
-0.404582 0.00300567 -0.304618 -0.404483 -0.0134107 -0.299997 -0.404957 -0.00248945 -0.298514 
-0.400139 0.000294845 -0.301897 -0.405423 -0.0210119 -0.29526 -0.395327 0.00458632 -0.292301 
-0.397677 0.0118073 -0.293651 -0.397065 0.0177189 -0.29224 -0.385833 -0.00956869 -0.288738 
-0.390828 -0.0221097 -0.285405 -0.386115 -0.0048762 -0.285598 -0.394394 0.021698 -0.285348 
-0.384861 -0.00354643 -0.280561 -0.382646 -0.0146058 -0.280309 -0.383353 0.00520174 -0.277936 
-0.381725 -0.0201389 -0.274781 -0.371615 0.00363457 -0.275452 -0.390994 -0.0320274 -0.27095 
-0.377646 -0.0322356 -0.270649 -0.376599 -0.0116112 -0.272943 -0.373552 -0.0119251 -0.269736 
-0.369595 -0.00760532 -0.269638 -0.370108 0.00131234 -0.269619 -0.372411 0.0142903 -0.271537 
-0.375096 0.0158603 -0.272564 -0.373738 -0.0228569 -0.269044 -0.365149 -0.00700985 -0.267171 
-0.362086 -0.00242864 -0.266484 -0.365014 0.00575046 -0.266481 -0.374573 -0.0301982 -0.265877 
-0.354549 -0.0139859 -0.261584 -0.355969 -0.00402945 -0.261683 -0.354107 -0.00404638 -0.259067 
-0.353929 -0.000192836 -0.261907 -0.352457 -0.00121163 -0.258738 -0.357298 0.0034641 -0.260782 
-0.358835 0.0290491 -0.258669 -0.353923 -0.0224314 -0.257928 -0.353432 -0.0218483 -0.254266 
-0.350264 -0.00702419 -0.257227 -0.351335 -0.00432149 -0.256092 -0.349372 -0.00217546 -0.257026 
-0.344418 -0.0019298 -0.258073 -0.346069 0.0058715 -0.255018 -0.348858 0.00788745 -0.2561 
-0.352192 0.01193 -0.257952 -0.34896 0.0112691 -0.258336 -0.350459 0.0143115 -0.256474 
-0.353993 0.0207398 -0.257288 -0.348878 0.0193663 -0.255242 -0.357828 -0.0215125 -0.252325 
-0.346971 -0.0196059 -0.253833 -0.347316 0.00308802 -0.254561 -0.342025 0.00581465 -0.251676 
-0.345644 0.00903676 -0.253448 -0.35076 0.0228898 -0.253556 -0.353221 0.0299486 -0.253706 
-0.3619 0.0441417 -0.253219 -0.345197 -0.0234537 -0.250559 -0.339926 -0.0102381 -0.249611 
-0.338386 -0.00432703 -0.248919 -0.339712 0.000152342 -0.249941 -0.346093 -0.0372487 -0.246256 
-0.335846 -0.0212982 -0.244906 -0.331724 -0.0220952 -0.243271 -0.332796 -0.0140076 -0.245827 
-0.336228 -0.00160375 -0.245211 -0.327745 -0.000636606 -0.24275 -0.330533 0.00414717 -0.246173 
-0.329937 0.00747193 -0.244669 -0.337023 0.0142719 -0.247002 -0.328208 -0.0174431 -0.242902 
-0.324478 -0.0157753 -0.241573 -0.346141 -0.0113068 -0.243511 -0.326356 -0.0119852 -0.240853 
-0.322203 -0.00715495 -0.241552 -0.322852 0.00130823 -0.242201 -0.322703 0.00869079 -0.240581 
-0.322772 0.0129468 -0.241279 -0.346324 0.0395114 -0.243436 -0.329984 -0.0315627 -0.239828 
-0.339897 -0.00308645 -0.234823 -0.311391 -0.000234169 -0.236352 -0.322743 0.0166715 -0.239589 
-0.31682 0.0163053 -0.237183 -0.311287 -0.025171 -0.233022 -0.307113 -0.0103049 -0.235079 
-0.306864 -0.0056973 -0.234249 -0.305986 0.0102786 -0.23343 -0.306208 0.0153105 -0.234044 
-0.322619 0.0329898 -0.235269 -0.322319 -0.0434056 -0.230716 -0.300775 -0.00739945 -0.231621 
-0.300975 0.00459994 -0.231684 -0.297611 0.00937529 -0.231046 -0.303006 0.0139894 -0.231774 
-0.300184 0.011195 -0.231301 -0.30202 0.0289487 -0.2294 -0.307822 0.03222 -0.230612 
-0.318265 0.0347651 -0.231885 -0.299949 -0.0302173 -0.228217 -0.292327 -0.0244525 -0.226601 
-0.291708 -0.0182057 -0.227578 -0.29374 -0.011432 -0.228244 -0.290641 -0.00351305 -0.227213 
-0.29091 0.000451199 -0.228789 -0.288884 0.00321186 -0.226184 -0.284824 0.00806413 -0.225735 
-0.290512 0.0135553 -0.227782 -0.28786 0.0116103 -0.226787 -0.303848 0.0329101 -0.228685 
-0.284551 -0.0180633 -0.224618 -0.280527 -0.0131196 -0.223593 -0.280068 -0.00769735 -0.223962 
-0.279408 0.00014002 -0.223947 -0.284163 0.00411921 -0.224624 -0.280519 0.0101887 -0.222733 
-0.280636 0.0195725 -0.222546 -0.290059 -0.0349374 -0.221437 -0.277337 -0.0108539 -0.221407 
-0.269653 -0.00812443 -0.218456 -0.273314 -0.00661563 -0.221152 -0.271841 -0.000797942 -0.22073 
-0.274206 0.00391397 -0.22048 -0.269484 0.0057123 -0.218374 -0.27341 0.013572 -0.220537 
-0.277589 0.0141893 -0.221127 -0.28441 0.0352268 -0.220105 -0.2859 0.0381382 -0.219904 
-0.259572 -0.011802 -0.214947 -0.264688 -0.00941799 -0.216267 -0.260396 0.0101734 -0.215423 
-0.27173 -0.0341126 -0.214139 -0.265768 -0.0310819 -0.213846 -0.256015 -0.00895774 -0.213727 
-0.254735 -0.00501339 -0.211846 -0.257771 -0.00132464 -0.21367 -0.253728 -0.000143834 -0.213076 
-0.249428 0.00387626 -0.211081 -0.254015 0.00819468 -0.21284 -0.256515 0.013271 -0.213484 
-0.257214 0.0183748 -0.213003 -0.261921 0.0269893 -0.213343 -0.265835 -0.0409317 -0.210661 
-0.254482 -0.0216036 -0.210302 -0.24417 -0.0110797 -0.208558 -0.247586 -0.00447494 -0.210378 
-0.250651 -0.00178582 -0.210706 -0.242751 0.0030408 -0.208298 -0.244882 0.00598986 -0.209085 
-0.254006 0.0181887 -0.210586 -0.247416 0.0209984 -0.208515 -0.249197 0.0277103 -0.207864 
-0.273651 0.0467957 -0.211158 -0.264036 -0.046472 -0.207574 -0.249574 -0.0244065 -0.207685 
-0.243044 -0.0235605 -0.2063 -0.237057 -0.0110301 -0.205416 -0.241336 -0.00896497 -0.207469 
-0.234857 -0.00251374 -0.204715 -0.240307 0.000474492 -0.207352 -0.239323 0.006137 -0.206727 
-0.239409 0.0100549 -0.206634 -0.243085 0.0129197 -0.206294 -0.236013 0.0161439 -0.20445 
-0.240867 0.025662 -0.204939 -0.247581 0.0297879 -0.206341 -0.253263 0.0380437 -0.206704 
-0.255396 0.0411116 -0.206316 -0.232632 -0.0295882 -0.200566 -0.232783 -0.0228334 -0.201719 
-0.233694 -0.016568 -0.202458 -0.229593 -0.0115066 -0.200908 -0.226809 -0.00766105 -0.201382 
-0.236892 -0.00239664 -0.201434 -0.230674 0.011802 -0.201671 -0.237125 0.0248554 -0.202463 
-0.231264 0.0249451 -0.20111 -0.2629 0.032077 -0.20529 -0.226775 -0.0190644 -0.199206 
-0.221609 -0.0170341 -0.198324 -0.224916 -0.0104674 -0.20034 -0.220304 -0.0128922 -0.197073 
-0.222099 -0.00885101 -0.199273 -0.216056 -0.00306775 -0.197112 -0.221414 0.000370726 -0.198252 
-0.223408 0.00770684 -0.200017 -0.225988 0.0147711 -0.20041 -0.226793 0.0209924 -0.198848 
-0.226759 0.0261949 -0.198911 -0.231877 0.0294111 -0.200266 -0.21305 -0.0161074 -0.194809 
-0.211896 -0.0105223 -0.194889 -0.21559 -0.00743369 -0.195617 -0.212132 -0.00220137 -0.19517 
-0.214949 0.000914018 -0.195122 -0.210565 0.000981601 -0.194712 -0.221468 0.0288485 -0.196058 
-0.218472 0.0285426 -0.194908 -0.224255 0.0339877 -0.195982 -0.215611 -0.0416466 -0.18998 
-0.212545 -0.0288599 -0.192342 -0.206428 -0.0222104 -0.191311 -0.208153 -0.0145033 -0.192865 
-0.211947 -0.0140773 -0.191557 -0.208396 -0.0106782 -0.193351 -0.205823 -0.011705 -0.19198 
-0.205868 -0.00685468 -0.191628 -0.204788 -0.00065636 -0.192303 -0.20549 0.00358948 -0.191501 
-0.207868 0.0111297 -0.193179 -0.206873 0.0177612 -0.19086 -0.207062 0.0217704 -0.191641 
-0.215504 0.0259959 -0.193144 -0.209494 -0.0421685 -0.18737 -0.207701 -0.0293085 -0.189045 
-0.204116 -0.0157063 -0.184934 -0.202614 -0.0101012 -0.190798 -0.201278 -0.0144749 -0.18893 
-0.201365 -0.00750042 -0.189234 -0.200795 -0.00318425 -0.187445 -0.0762096 -0.00343645 -0.127618 
-0.0797414 0.0395235 -0.12696 -0.200087 0.011411 -0.189836 -0.198245 -0.0184191 -0.188275 
-0.0635549 -0.0224784 -0.125572 -0.0545006 0.0127057 -0.126121 -0.19465 -0.00920782 -0.187817 
-0.0490312 0.00982197 -0.125274 -0.195412 0.00100904 -0.18725 -0.19323 0.00549243 -0.187454 
-0.198884 0.00862435 -0.189623 -0.195356 0.00864315 -0.188126 -0.197674 0.0248638 -0.187025 
-0.195232 -0.0298413 -0.184976 -0.193253 -0.0241632 -0.185452 -0.0706794 0.0276152 -0.128376 
-0.192689 -0.0165263 -0.18504 -0.190139 -0.0120585 -0.185532 -0.189095 -0.00563607 -0.185625 
-0.186282 -0.00575976 -0.184303 -0.187995 -0.00197133 -0.184117 -0.190206 0.00345509 -0.185105 
-0.193641 0.0116807 -0.186016 -0.188318 0.0117729 -0.184818 -0.193778 0.0166669 -0.185604 
-0.189651 0.0192308 -0.184671 -0.19262 0.0219844 -0.184388 -0.189753 -0.0372497 -0.179895 
-0.185456 -0.0218899 -0.182006 -0.177044 -0.018042 -0.179503 -0.182871 -0.0124038 -0.181477 
-0.177717 -0.012791 -0.179319 -0.188634 -0.00904887 -0.179174 -0.178991 -0.00255236 -0.18137 
-0.178164 0.00649824 -0.181005 -0.182383 0.0135717 -0.182174 -0.181414 0.0201831 -0.181157 
-0.184462 0.0252772 -0.180308 -0.187414 0.029744 -0.18064 -0.183724 -0.0305044 -0.178924 
-0.17277 -0.0188599 -0.177688 -0.191165 -0.0144301 -0.176557 -0.172549 -0.00772818 -0.177531 
-0.166424 -0.0098169 -0.175886 -0.177817 -0.00575636 -0.178923 -0.173627 -0.00237503 -0.177939 
-0.173228 0.0014682 -0.179033 -0.168753 0.00601494 -0.175933 -0.173874 0.00818564 -0.17774 
[...]
POINT_DATA 763
FIELD FieldData 7
id 1 763 int
168 312 11 13 36 28 41 38 10 
57 92 8 130 79 40 101 48 126 
54 67 4 42 63 14 59 46 44 
53 49 75 29 76 93 83 43 88 
104 162 122 20 62 45 50 134 15 
148 72 114 87 18 100 85 163 70 
51 71 181 132 69 177 17 116 154 
61 158 81 147 192 120 166 64 174 
37 52 47 84 77 39 109 12 156 
35 145 65 91 74 138 94 96 55 
167 25 73 133 95 98 82 233 245 
112 157 150 118 222 124 146 137 200 
111 188 231 176 110 175 182 196 136 
274 244 125 86 103 89 187 143 66 
270 139 159 304 90 80 105 203 186 
78 281 257 140 268 128 127 113 227 
234 198 201 216 232 171 144 204 228 
246 153 121 97 135 327 194 224 170 
209 202 178 161 165 191 117 123 185 
141 164 277 215 238 265 211 102 259 
230 287 218 152 243 155 239 262 131 
206 199 290 129 119 252 282 260 180 
151 271 278 183 347 205 275 219 302 
149 314 220 309 293 272 300 210 223 
258 337 295 214 254 208 372 279 342 
288 292 189 212 251 115 250 172 190 
236 289 318 184 299 221 106 193 284 
341 207 301 311 325 320 286 315 249 
317 169 107 217 308 307 160 266 323 
256 348 355 297 225 229 235 344 515 
516 197 313 568 547 346 534 240 345 
310 333 324 365 413 526 179 378 379 
247 280 305 269 261 267 213 242 255 
425 321 253 241 359 285 283 322 352 
370 319 381 373 338 316 358 376 331 
226 354 384 411 380 389 264 332 350 
405 403 237 303 328 248 391 374 273 
330 329 291 367 326 173 392 294 336 
393 335 371 396 349 394 306 395 334 
414 406 441 296 386 415 428 276 388 
429 402 377 400 298 362 432 382 447 
442 339 369 383 356 404 430 409 385 
426 448 438 457 419 407 439 401 463 
398 360 437 351 343 468 387 424 399 
458 423 410 452 408 504 472 375 412 
357 480 390 475 397 446 460 434 363 
364 479 492 340 513 500 440 427 469 
490 417 478 431 421 464 418 422 433 
535 443 473 368 465 466 471 481 453 
416 353 195 476 484 455 482 470 512 
450 435 494 483 533 525 496 523 361 
467 366 445 528 474 507 502 509 461 
459 514 488 420 498 454 491 563 566 
510 495 503 558 537 436 449 477 489 
493 532 487 505 497 527 444 559 541 
542 584 573 486 511 520 522 519 577 
518 508 589 517 506 524 540 548 572 
618 529 462 530 451 565 594 787 789 
501 778 765 780 784 779 545 485 599 
552 781 576 521 786 783 609 790 782 
499 543 531 539 597 544 602 546 603 
570 562 536 578 635 586 554 588 569 
595 538 582 633 585 549 575 611 614 
623 581 634 596 555 551 556 587 616 
550 619 627 574 625 624 629 579 615 
590 600 631 637 622 593 630 580 591 
645 592 647 644 561 607 601 605 648 
604 628 567 613 638 608 557 564 621 
620 642 641 639 636 632 617 610 571 
606 643 583 612 626 598 263 640 655 
660 646 658 654 650 659 553 651 560 
656 456 653 649 652 661 657 672 663 
667 674 670 665 671 673 669 666 668 
662 682 664 680 679 687 676 686 685 
681 683 678 675 684 677 698 693 697 
689 695 688 694 691 699 692 700 690 
708 710 696 705 706 712 702 713 703 
701 711 709 707 704 716 720 717 719 
722 725 721 723 715 718 724 714 726 
728 738 730 732 727 735 734 729 736 
737 731 739 733 744 752 750 749 743 
745 748 741 742 746 747 740 751 758 
755 763 761 756 764 757 759 754 762 
760 753 776 772 768 775 769 774 766 
771 770 767 777 773 788 785 
type 1 763 int
1 1 1 1 1 1 1 1 1 
1 1 1 1 1 1 1 1 1 
1 1 1 1 1 1 1 1 1 
1 1 1 1 1 1 1 1 1 
1 1 1 1 1 1 1 1 1 
1 1 1 1 1 1 1 1 1 
1 1 1 1 1 1 1 1 1 
1 1 1 1 1 1 1 1 1 
1 1 1 1 1 1 1 1 1 
1 1 1 1 1 1 1 1 1 
1 1 1 1 1 1 1 1 1 
1 1 1 1 1 1 1 1 1 
1 1 1 1 1 1 1 1 1 
1 1 1 1 1 1 1 1 1 
1 1 1 1 1 1 1 1 1 
1 1 1 1 1 1 1 1 1 
1 1 1 1 1 1 1 1 1 
1 1 1 1 1 1 1 1 1 
1 1 1 1 1 1 1 1 1 
1 1 1 1 1 1 1 1 1 
1 1 1 1 1 1 1 1 1 
1 1 1 1 1 1 1 1 1 
1 1 1 1 1 1 1 1 1 
1 1 1 1 1 1 1 1 1 
1 1 1 1 1 1 1 1 1 
1 1 1 1 1 1 1 1 1 
1 1 1 1 1 1 1 1 1 
1 1 1 1 1 1 1 1 1 
1 1 1 1 1 1 1 1 1 
1 1 1 1 1 1 1 1 1 
1 1 1 1 1 1 1 1 1 
1 1 1 1 1 1 1 1 1 
1 1 1 1 1 1 1 1 1 
1 1 1 1 1 1 1 1 1 
1 1 1 1 1 1 1 1 1 
1 1 1 1 1 1 1 1 1 
1 1 1 1 1 1 1 1 1 
1 1 1 1 1 1 1 1 1 
1 1 1 1 1 1 1 1 1 
1 1 1 1 1 1 1 1 1 
1 1 1 1 1 1 1 1 1 
1 1 1 1 1 1 1 1 1 
1 1 1 1 1 1 1 1 1 
1 1 1 1 1 1 1 1 1 
1 1 1 1 1 1 1 1 1 
1 1 1 1 1 1 1 1 1 
1 1 1 1 1 1 1 1 1 
1 1 1 1 1 1 1 1 1 
1 1 1 1 1 1 1 1 1 
1 1 1 1 1 1 1 1 1 
1 1 1 1 1 1 1 1 1 
1 1 1 1 1 1 1 1 1 
1 1 1 1 1 1 1 1 1 
1 1 1 1 1 1 1 1 1 
1 1 1 1 1 1 1 1 1 
1 1 1 1 1 1 1 1 1 
1 1 1 1 1 1 1 1 1 
1 1 1 1 1 1 1 1 1 
1 1 1 1 1 1 1 1 1 
1 1 1 1 1 1 1 1 1 
1 1 1 1 1 1 1 1 1 
1 1 1 1 1 1 1 1 1 
1 1 1 1 1 1 1 1 1 
1 1 1 1 1 1 1 1 1 
1 1 1 1 1 1 1 1 1 
1 1 1 1 1 1 1 1 1 
1 1 1 1 1 1 1 1 1 
1 1 1 1 1 1 1 1 1 
1 1 1 1 1 1 1 1 1 
1 1 1 1 1 1 1 1 1 
1 1 1 1 1 1 1 1 1 
1 1 1 1 1 1 1 1 1 
1 1 1 1 1 1 1 1 1 
1 1 1 1 1 1 1 1 1 
1 1 1 1 1 1 1 1 1 
1 1 1 1 1 1 1 1 1 
1 1 1 1 1 1 1 1 1 
1 1 1 1 1 1 1 1 1 
1 1 1 1 1 1 1 1 1 
1 1 1 1 1 1 1 1 1 
1 1 1 1 1 1 1 1 1 
1 1 1 1 1 1 1 1 1 
1 1 1 1 1 1 1 1 1 
1 1 1 1 1 1 1 1 1 
1 1 1 1 1 1 1 
i 3 763 int
0 0 0 0 0 0 0 0 0 
0 0 0 0 0 0 0 0 0 
0 0 0 0 0 0 0 0 0 
0 0 0 0 0 0 0 0 0 
0 0 0 0 0 0 0 0 0 
0 0 0 0 0 0 0 0 0 
0 0 0 0 0 0 0 0 0 
0 0 0 0 0 0 0 0 0 
0 0 0 0 0 0 0 0 0 
0 0 0 0 0 0 0 0 0 
0 0 0 0 0 0 0 0 0 
0 0 0 0 0 0 0 0 0 
0 0 0 0 0 0 0 0 0 
0 0 0 0 0 0 0 0 0 
0 0 0 0 0 0 0 0 0 
0 0 0 0 0 0 0 0 0 
0 0 0 0 0 0 0 0 0 
0 0 0 0 0 0 0 0 0 
0 0 0 0 0 0 0 0 0 
0 0 0 0 0 0 0 0 0 
0 0 0 0 0 0 0 0 0 
0 0 0 0 0 0 0 0 0 
0 0 0 0 0 0 0 0 0 
0 0 0 0 0 0 0 0 0 
0 0 0 0 0 0 0 0 0 
0 0 0 0 0 0 0 0 0 
0 0 0 0 0 0 0 0 0 
0 0 0 0 0 0 0 0 0 
0 0 0 0 0 0 0 0 0 
0 0 0 0 0 0 0 0 0 
0 0 0 0 0 0 0 0 0 
0 0 0 0 0 0 0 0 0 
0 0 0 0 0 0 0 0 0 
0 0 0 0 0 0 0 0 0 
0 0 0 0 0 0 0 0 0 
0 0 0 0 0 0 0 0 0 
0 0 0 0 0 0 0 0 0 
0 0 0 0 0 0 0 0 0 
0 0 0 0 0 0 0 0 0 
0 0 0 0 0 0 0 0 0 
0 0 0 0 0 0 0 0 0 
0 0 0 0 0 0 0 0 0 
0 0 0 0 0 0 0 0 0 
0 0 0 0 0 0 0 0 0 
0 0 0 0 0 0 0 0 0 
0 0 0 0 0 0 0 0 0 
0 0 0 0 0 0 0 0 0 
0 0 0 0 0 0 0 0 0 
0 0 0 0 0 0 0 0 0 
0 0 0 0 0 0 0 0 0 
0 0 0 0 0 0 0 0 0 
0 0 0 0 0 0 0 0 0 
0 0 0 0 0 0 0 0 0 
0 0 0 0 0 0 0 0 0 
0 0 0 0 0 0 0 0 0 
0 0 0 0 0 0 0 0 0 
0 0 0 0 0 0 0 0 0 
0 0 0 0 0 0 0 0 0 
0 0 0 0 0 0 0 0 0 
0 0 0 0 0 0 0 0 0 
0 0 0 0 0 0 0 0 0 
0 0 0 0 0 0 0 0 0 
0 0 0 0 0 0 0 0 0 
0 0 0 0 0 0 0 0 0 
0 0 0 0 0 0 0 0 0 
0 0 0 0 0 0 0 0 0 
0 0 0 0 0 0 0 0 0 
0 0 0 0 0 0 0 0 0 
0 0 0 0 0 0 0 0 0 
0 0 0 0 0 0 0 0 0 
0 0 0 0 0 0 0 0 0 
0 0 0 0 0 0 0 0 0 
0 0 0 0 0 0 0 0 0 
0 0 0 0 0 0 0 0 0 
0 0 0 0 0 0 0 0 0 
0 0 0 0 0 0 0 0 0 
0 0 0 0 0 0 0 0 0 
0 0 0 0 0 0 0 0 0 
0 0 0 0 0 0 0 0 0 
0 0 0 0 0 0 0 0 0 
0 0 0 0 0 0 0 0 0 
0 0 0 0 0 0 0 0 0 
0 0 0 0 0 0 0 0 0 
0 0 0 0 0 0 0 0 0 
0 0 0 0 0 0 0 0 0 
0 0 0 0 0 0 0 0 0 
0 0 0 0 0 0 0 0 0 
0 0 0 0 0 0 0 0 0 
0 0 0 0 0 0 0 0 0 
0 0 0 0 0 0 0 0 0 
0 0 0 0 0 0 0 0 0 
0 0 0 0 0 0 0 0 0 
0 0 0 0 0 0 0 0 0 
0 0 0 0 0 0 0 0 0 
0 0 0 0 0 0 0 0 0 
0 0 0 0 0 0 0 0 0 
0 0 0 0 0 0 0 0 0 
0 0 0 0 0 0 0 0 0 
0 0 0 0 0 0 0 0 0 
0 0 0 0 0 0 0 0 0 
0 0 0 0 0 0 0 0 0 
0 0 0 0 0 0 0 0 0 
0 0 0 0 0 0 0 0 0 
0 0 0 0 0 0 0 0 0 
0 0 0 0 0 0 0 0 0 
0 0 0 0 0 0 0 0 0 
0 0 0 0 0 0 0 0 0 
0 0 0 0 0 0 0 0 0 
0 0 0 0 0 0 0 0 0 
0 0 0 0 0 0 0 0 0 
0 0 0 0 0 0 0 0 0 
0 0 0 0 0 0 0 0 0 
0 0 0 0 0 0 0 0 0 
0 0 0 0 0 0 0 0 0 
0 0 0 0 0 0 0 0 0 
0 0 0 0 0 0 0 0 0 
0 0 0 0 0 0 0 0 0 
0 0 0 0 0 0 0 0 0 
0 0 0 0 0 0 0 0 0 
0 0 0 0 0 0 0 0 0 
0 0 0 0 0 0 0 0 0 
0 0 0 0 0 0 0 0 0 
0 0 0 0 0 0 0 0 0 
0 0 0 0 0 0 0 0 0 
0 0 0 0 0 0 0 0 0 
0 0 0 0 0 0 0 0 0 
0 0 0 0 0 0 0 0 0 
0 0 0 0 0 0 0 0 0 
0 0 0 0 0 0 0 0 0 
0 0 0 0 0 0 0 0 0 
0 0 0 0 0 0 0 0 0 
0 0 0 0 0 0 0 0 0 
0 0 0 0 0 0 0 0 0 
0 0 0 0 0 0 0 0 0 
0 0 0 0 0 0 0 0 0 
0 0 0 0 0 0 0 0 0 
0 0 0 0 0 0 0 0 0 
0 0 0 0 0 0 0 0 0 
0 0 0 0 0 0 0 0 0 
0 0 0 0 0 0 0 0 0 
0 0 0 0 0 0 0 0 0 
0 0 0 0 0 0 0 0 0 
0 0 0 0 0 0 0 0 0 
0 0 0 0 0 0 0 0 0 
0 0 0 0 0 0 0 0 0 
0 0 0 0 0 0 0 0 0 
0 0 0 0 0 0 0 0 0 
0 0 0 0 0 0 0 0 0 
0 0 0 0 0 0 0 0 0 
0 0 0 0 0 0 0 0 0 
0 0 0 0 0 0 0 0 0 
0 0 0 0 0 0 0 0 0 
0 0 0 0 0 0 0 0 0 
0 0 0 0 0 0 0 0 0 
0 0 0 0 0 0 0 0 0 
0 0 0 0 0 0 0 0 0 
0 0 0 0 0 0 0 0 0 
0 0 0 0 0 0 0 0 0 
0 0 0 0 0 0 0 0 0 
0 0 0 0 0 0 0 0 0 
0 0 0 0 0 0 0 0 0 
0 0 0 0 0 0 0 0 0 
0 0 0 0 0 0 0 0 0 
0 0 0 0 0 0 0 0 0 
0 0 0 0 0 0 0 0 0 
0 0 0 0 0 0 0 0 0 
0 0 0 0 0 0 0 0 0 
0 0 0 0 0 0 0 0 0 
0 0 0 0 0 0 0 0 0 
0 0 0 0 0 0 0 0 0 
0 0 0 0 0 0 0 0 0 
0 0 0 0 0 0 0 0 0 
0 0 0 0 0 0 0 0 0 
0 0 0 0 0 0 0 0 0 
0 0 0 0 0 0 0 0 0 
0 0 0 0 0 0 0 0 0 
0 0 0 0 0 0 0 0 0 
0 0 0 0 0 0 0 0 0 
0 0 0 0 0 0 0 0 0 
0 0 0 0 0 0 0 0 0 
0 0 0 0 0 0 0 0 0 
0 0 0 0 0 0 0 0 0 
0 0 0 0 0 0 0 0 0 
0 0 0 0 0 0 0 0 0 
0 0 0 0 0 0 0 0 0 
0 0 0 0 0 0 0 0 0 
0 0 0 0 0 0 0 0 0 
0 0 0 0 0 0 0 0 0 
0 0 0 0 0 0 0 0 0 
0 0 0 0 0 0 0 0 0 
0 0 0 0 0 0 0 0 0 
0 0 0 0 0 0 0 0 0 
0 0 0 0 0 0 0 0 0 
0 0 0 0 0 0 0 0 0 
0 0 0 0 0 0 0 0 0 
0 0 0 0 0 0 0 0 0 
0 0 0 0 0 0 0 0 0 
0 0 0 0 0 0 0 0 0 
0 0 0 0 0 0 0 0 0 
0 0 0 0 0 0 0 0 0 
0 0 0 0 0 0 0 0 0 
0 0 0 0 0 0 0 0 0 
0 0 0 0 0 0 0 0 0 
0 0 0 0 0 0 0 0 0 
0 0 0 0 0 0 0 0 0 
0 0 0 0 0 0 0 0 0 
0 0 0 0 0 0 0 0 0 
0 0 0 0 0 0 0 0 0 
0 0 0 0 0 0 0 0 0 
0 0 0 0 0 0 0 0 0 
0 0 0 0 0 0 0 0 0 
0 0 0 0 0 0 0 0 0 
0 0 0 0 0 0 0 0 0 
0 0 0 0 0 0 0 0 0 
0 0 0 0 0 0 0 0 0 
0 0 0 0 0 0 0 0 0 
0 0 0 0 0 0 0 0 0 
0 0 0 0 0 0 0 0 0 
0 0 0 0 0 0 0 0 0 
0 0 0 0 0 0 0 0 0 
0 0 0 0 0 0 0 0 0 
0 0 0 0 0 0 0 0 0 
0 0 0 0 0 0 0 0 0 
0 0 0 0 0 0 0 0 0 
0 0 0 0 0 0 0 0 0 
0 0 0 0 0 0 0 0 0 
0 0 0 0 0 0 0 0 0 
0 0 0 0 0 0 0 0 0 
0 0 0 0 0 0 0 0 0 
0 0 0 0 0 0 0 0 0 
0 0 0 0 0 0 0 0 0 
0 0 0 0 0 0 0 0 0 
0 0 0 0 0 0 0 0 0 
0 0 0 0 0 0 0 0 0 
0 0 0 0 0 0 0 0 0 
0 0 0 0 0 0 0 0 0 
0 0 0 0 0 0 0 0 0 
0 0 0 0 0 0 0 0 0 
0 0 0 0 0 0 0 0 0 
0 0 0 0 0 0 0 0 0 
0 0 0 0 0 0 0 0 0 
0 0 0 0 0 0 0 0 0 
0 0 0 0 0 0 0 0 0 
0 0 0 0 0 0 0 0 0 
0 0 0 0 0 0 0 0 0 
0 0 0 0 0 0 0 0 0 
0 0 0 0 0 0 0 0 0 
0 0 0 0 0 0 0 0 0 
0 0 0 0 0 0 0 0 0 
0 0 0 0 0 0 0 0 0 
0 0 0 0 0 0 0 0 0 
0 0 0 0 0 0 0 0 0 
0 0 0 0 0 0 0 0 0 
0 0 0 0 0 0 0 0 0 
0 0 0 
v 3 763 double
-0.981163 -0.0074669 -0.329669 -0.847383 0.0769068 -0.362617 -1.22067 0.0285474 -1.83324 
-1.21196 0.0390049 -1.80353 -1.08435 0.0642844 -1.78927 -1.2302 0.00574051 -1.82783 
-1.24643 -0.117866 -1.81581 -1.0323 0.152826 -1.77308 -1.116 0.019221 -1.73329 
-1.22662 -0.116708 -1.75227 -1.34796 0.269572 -1.79212 -1.22068 -0.298572 -1.78011 
-1.37075 -0.249623 -1.74067 -1.10241 -0.0910185 -1.64956 -1.19979 -0.0555813 -1.67917 
-1.20344 -0.0768672 -1.64448 -1.19319 -0.0892842 -1.65179 -1.19839 0.239857 -1.78881 
-1.08092 -0.0613343 -1.55814 -1.27485 0.17461 -1.60546 -1.31844 0.0999611 -1.55716 
-1.07951 0.0100131 -1.52094 -0.973525 -0.054984 -1.4756 -1.20031 -0.116061 -1.51761 
-1.277 -0.273313 -1.55071 -1.1745 -0.054974 -1.48363 -1.16531 -0.100774 -1.47833 
-0.950694 -0.0282768 -1.45771 -1.21623 0.0824053 -1.41993 -1.27791 -0.159827 -1.52704 
-1.16483 0.0470791 -1.41186 -1.22816 0.208558 -1.41961 -1.11646 -0.190801 -1.37036 
-1.13593 0.0982091 -1.35082 -1.14832 -0.0493155 -1.36467 -1.00125 -0.056749 -1.30958 
-1.23274 0.169146 -1.34707 -1.14703 0.278463 -1.42726 -0.927985 -0.0893705 -1.29585 
-1.15392 0.253472 -1.3424 -1.16496 0.313566 -1.34385 -1.0702 0.0723754 -1.25788 
-1.14927 0.0317068 -1.25326 -0.916792 0.00792413 -1.29472 -1.16235 0.0278991 -1.24938 
-1.14264 -0.0465569 -1.2721 -1.0697 -0.178245 -1.26719 -1.25689 0.0342867 -1.31259 
-1.06247 -0.0318213 -1.16401 -1.1263 -0.0230756 -1.16254 -1.06719 -0.01735 -1.08489 
-1.05461 -0.0269159 -1.17486 -1.2255 0.338249 -1.27158 -1.15631 -0.04943 -1.11324 
-1.13458 0.0303929 -1.12829 -1.15352 0.0596096 -1.10766 -1.06918 0.00527484 -1.09563 
-1.08618 -0.129173 -1.01274 -1.10517 0.0370108 -1.05433 -1.21306 -0.0523629 -1.09127 
-1.13677 0.0257101 -0.99344 -1.04079 0.00651297 -0.984058 -1.25934 -0.101095 -1.01368 
-1.18328 0.102491 -0.96165 -1.08849 -0.0675976 -0.969671 -1.31752 0.207942 -0.996537 
-1.08577 0.104779 -1.01813 -1.08167 -0.0200369 -0.896336 -1.26404 0.214881 -0.938575 
-1.05827 0.0730597 -0.876222 -1.09304 0.0583722 -0.871498 -1.15856 0.079826 -0.90984 
-1.17128 -0.0833829 -0.945143 -1.08858 -0.00313056 -0.883485 -1.04712 0.0604206 -0.829357 
-0.961548 0.0916634 -0.80314 -1.07089 0.0764774 -0.839725 -1.08279 0.0902998 -0.870616 
-0.973134 0.0703171 -0.802181 -1.01904 0.0990585 -0.768532 -1.06185 -0.0120895 -0.756759 
-0.899299 0.142856 -0.765909 -1.03551 0.0244052 -0.685985 -1.06973 -0.0390535 -0.775474 
-0.890193 -0.0398723 -0.754905 -0.959316 -0.0543726 -0.840879 -1.21555 -0.0815311 -0.565033 
-0.909672 0.122195 -0.678182 -1.15247 0.0306876 -0.682473 -0.951892 -0.0497556 -0.675091 
-1.0019 0.075526 -0.907224 -1.02012 -0.0691582 -0.691436 -1.02561 -0.0353521 -0.69125 
-1.04446 -0.0227815 -0.724006 -1.02523 -0.021201 -0.78389 -1.01979 -0.0331081 -0.703634 
-1.05417 0.0584524 -0.720776 -0.886289 -0.129696 -0.68136 -1.08383 -0.051568 -0.640955 
-1.071 0.176431 -0.778868 -1.21061 0.144439 -0.707609 -1.08484 -0.0586101 -0.64273 
-1.01956 -0.059453 -0.639324 -1.25073 -0.116309 -0.761229 -1.12835 -0.419055 -0.894827 
-0.988256 0.109287 -0.68209 -1.07018 0.1249 -0.688438 -1.10644 0.0822318 -0.600255 
-0.974827 0.0231995 -0.519454 -1.12355 0.027498 -0.596095 -1.23671 0.0350299 -0.717667 
-0.956358 0.130036 -0.549584 -0.937038 0.00446306 -0.426645 -0.9273 0.0533049 -0.494798 
-1.00178 0.126971 -0.37772 -0.791703 -0.0638444 -0.25232 -0.940199 0.0454977 -0.635324 
-1.00509 0.184283 -0.389868 -1.19212 0.14309 -0.613898 -0.893674 0.0247865 -0.421321 
-0.961192 0.149084 -0.43202 -1.06646 0.310137 -0.562683 -0.969406 0.109652 -0.573154 
-0.746572 0.219763 -0.315066 -1.09065 -0.0323054 -0.471288 -1.16812 -0.102789 -0.500142 
-1.10535 -0.0988378 -0.474293 -1.12203 -0.151544 -0.685598 -1.22839 0.138285 -0.558307 
-1.40563 -0.245875 0.0848255 -1.09001 0.0436918 -0.461453 -1.21428 -0.104073 -0.528239 
-1.1879 -0.0581785 -0.508537 -1.11234 -0.0482042 -0.413134 -1.07003 0.0538899 -0.456026 
-1.09053 0.0109674 -0.460216 -1.01815 0.169492 -0.419872 -0.93471 0.117 -0.367189 
-1.12593 -0.216083 -0.570908 -1.26098 0.0251757 -0.531815 -1.06762 -0.0327355 -0.449306 
-1.11162 -0.0600229 -0.473276 -1.10501 -0.234335 -0.480699 -0.926507 0.100826 -0.351258 
-0.869562 0.104077 -0.553027 -0.95137 -0.0594927 -0.399989 -1.19892 -0.538975 -0.668322 
-1.06902 -0.280969 -0.519682 -1.06734 0.00596627 -0.50448 -1.11273 -0.0905109 -0.421638 
-0.94708 -0.0528998 -0.385437 -1.00245 -0.0173301 -0.419875 -1.04604 -0.0321664 -0.449533 
-0.937429 0.0415386 -0.392692 -0.940326 0.0678357 -0.372387 -0.967983 0.0492566 -0.404868 
-1.03379 -0.0454554 -0.439763 -1.01694 -0.0362891 -0.43115 -1.01782 0.012661 -0.35396 
-1.0883 -0.0433485 -0.446312 -0.940566 0.0223789 -0.398144 -0.981415 0.106587 -0.417289 
-0.73032 0.0208238 -0.309025 -1.00509 0.024103 -0.422272 -1.06718 -0.0258116 -0.441947 
-1.03042 -0.114293 -0.468035 -1.08565 0.185392 -0.458405 -1.09195 -0.0121777 -0.457943 
-1.00101 -0.0349447 -0.422313 -0.935631 -0.000248638 -0.396724 -0.937903 -0.0312137 -0.392737 
-0.966584 -0.0513806 -0.413404 -0.994526 0.000125046 -0.423317 -0.970822 0.033245 -0.405338 
-1.01892 -0.0521045 -0.44226 -0.99274 -0.373237 -0.460263 -0.960471 -0.325894 -0.524934 
-0.983692 -0.0504919 -0.404446 -0.994217 -0.0794062 -0.407061 -0.846236 0.034329 -0.351415 
-1.04248 0.177617 -0.482557 -0.939069 0.165551 -0.414847 -0.968029 0.0186891 -0.404752 
-0.937392 -0.113721 -0.277528 -0.818086 0.0293245 -0.334002 -0.763387 -0.00698303 -0.325093 
-0.80848 0.00585142 -0.343707 -0.826676 -0.0178269 -0.347215 -1.02829 -0.0560326 -0.443168 
-1.0041 -0.035687 -0.429982 -1.03637 -0.216513 -0.488062 -0.964651 0.0376259 -0.463862 
-0.95559 0.182441 -0.409534 -0.816523 -0.061428 -0.355252 -0.961419 0.0628949 -0.410238 
-0.97438 -0.113947 -0.405443 -0.935352 -0.076538 -0.400744 -0.734364 0.014259 -0.306847 
-1.05476 0.0765083 -0.426663 -0.878871 -0.0907484 -0.38449 -1.02912 -0.0589836 -0.43831 
-0.943487 -0.300328 -0.488862 -1.2559 0.176481 -0.533277 -1.05561 0.0196015 -0.437916 
-1.03771 -0.00278608 -0.447075 -0.774396 0.0121277 -0.351227 -0.849068 -0.106462 -0.366027 
-0.938687 0.00922987 -0.318317 -0.979067 -0.0940059 -0.420292 -0.895062 -0.0183752 -0.378838 
-0.757012 0.0625993 -0.313419 -0.915047 -0.157548 -0.357111 -0.842523 0.19384 -0.332299 
-0.906574 0.0668676 -0.362621 -1.01465 -0.0733067 -0.461589 -1.08073 -0.0256087 -0.452234 
-1.09069 -0.00699588 -0.431473 -0.984386 -0.188365 -0.365475 -0.810016 -0.0497481 -0.399614 
-0.884235 -0.0311177 -0.375713 -0.708963 0.0848394 -0.29467 -0.869387 0.0653203 -0.367026 
-1.34372 0.0478029 -0.24328 -0.862148 -0.0373225 -0.377736 -0.878098 -0.0435207 -0.391154 
-0.828233 0.014667 -0.345065 -1.05368 0.0855229 -0.84292 -0.871393 -0.0235906 -0.354605 
-0.831132 0.0159347 -0.354623 -0.907063 0.073159 -0.394925 -0.917385 0.0291156 -0.382908 
-0.896989 0.0656648 -0.386478 -0.78225 0.0625656 -0.331504 -0.850598 -0.0146495 -0.355859 
-0.840818 0.0977556 -0.347833 -0.850459 0.0490116 -0.346832 -0.78359 -0.0073704 -0.325352 
-0.927284 -0.0256012 -0.396068 -1.0398 -0.0230121 -0.428296 -0.865849 0.00947861 -0.388362 
-0.78939 0.0304795 -0.337527 -0.887494 -0.0577218 -0.3632 -0.647474 -0.0440291 -0.247796 
-0.759239 -0.072207 -0.256924 -0.76188 0.104266 -0.324404 -0.813855 -0.167845 -0.371526 
-0.883387 -0.0593161 -0.376516 -0.944876 -0.080171 -0.40426 -0.947505 -0.0273775 -0.364995 
-0.874942 -0.0525743 -0.357918 -0.830164 0.0252486 -0.340197 -0.816532 -0.00326307 -0.351657 
-0.840169 -0.0292094 -0.386447 -0.949633 0.0747125 -0.413168 -0.912318 0.145076 -0.358198 
-0.914723 0.0194233 -0.380371 -0.922325 0.0721408 -0.391001 -0.683949 0.00740133 -0.284377 
-0.813784 -0.0348524 -0.351562 -0.843897 -0.0318434 -0.36816 -0.808227 -0.00631334 -0.360471 
-0.892469 -0.0718804 -0.389731 -1.03657 0.0118225 -0.415514 -1.04474 0.0254698 -0.416472 
-1.09777 -0.181021 -0.522838 -0.802854 0.0329455 -0.383798 -0.919496 0.0252781 -0.379562 
-0.848396 -0.0211573 -0.478059 -0.867481 -0.00107621 -0.356827 -0.714893 0.307207 -0.723344 
-0.531984 0.221598 -0.642626 -0.824028 -0.0122208 -0.342262 -0.854964 0.0225914 -0.368366 
-1.00672 0.097904 -0.309623 -0.609637 -0.261137 -0.471756 -0.8744 -0.00947494 -0.374787 
-0.454076 -0.0071954 -0.203183 -0.821488 0.0124142 -0.341613 -0.73729 0.0317265 -0.306742 
-0.82323 -0.0122449 -0.339041 -0.780919 0.0181538 -0.332408 -0.907473 -0.0605785 -0.39725 
-0.892804 -0.0278732 -0.356018 -0.904232 -0.0326732 -0.374933 -0.518619 0.368596 -0.532078 
-0.86634 0.0333188 -0.361665 -0.722716 0.0781293 -0.382496 -0.806705 -0.105689 -0.344343 
-0.784704 0.0070791 -0.424103 -0.85711 -0.075205 -0.376657 -0.747789 -0.0751532 -0.309983 
-0.771366 0.00917062 -0.329116 -0.75042 -0.0102671 -0.324545 -0.781833 0.0109873 -0.331823 
-0.886067 -0.158889 -0.388743 -0.812495 -0.034809 -0.346673 -0.848705 0.249206 -0.43904 
-1.02364 -0.365804 -0.285003 -0.821188 -0.0355345 -0.326827 -0.780741 -0.0103333 -0.321251 
-0.758212 0.0576184 -0.314133 -0.939888 -0.123543 -0.311274 -0.728559 0.0105679 -0.305165 
-0.920545 0.0541805 -0.386652 -0.744607 0.0508243 -0.306003 -0.828049 -0.0221614 -0.353183 
-0.88882 -0.0649653 -0.386971 -0.963181 -0.0763331 -0.408161 -0.814661 -0.194495 -0.289924 
-0.751459 -0.0203873 -0.318062 -1.07075 -0.106714 -0.410581 -0.781146 -0.0260066 -0.321032 
-0.591987 0.0440224 -0.25867 -0.850411 -0.0343788 -0.579837 -0.694637 0.00572291 -0.310138 
-0.711797 0.0123007 -0.295985 -0.844309 -0.0886743 -0.295767 -0.845396 -0.00478071 -0.304925 
-0.901932 -0.0767022 -0.378029 -0.891009 0.0585288 -0.373702 -0.874241 0.0669322 -0.359329 
-0.88412 0.065841 -0.363542 -0.816357 0.00419535 -0.335877 -0.916822 0.0234959 -0.387985 
-0.904953 0.032009 -0.350029 -0.991054 0.0428796 -0.401725 -0.784359 -0.00972403 -0.312306 
-0.806617 0.0824441 -0.382715 -0.685151 -0.0410907 -0.217068 -0.675717 -0.0623077 -0.264953 
-0.936665 -0.06826 -0.210752 -0.742852 0.0179504 -0.309305 -0.451859 -0.00806722 -0.273348 
-0.911708 -0.0128816 -0.317648 -0.690824 -0.0392807 -0.305408 -0.67454 -0.0275812 -0.291954 
-0.761492 0.0248829 -0.40871 -0.734804 0.132249 -0.327335 -0.776981 -0.086098 -0.331213 
-0.716838 -0.0167443 -0.305342 -0.776254 -0.0841326 -0.34779 -0.882998 -0.0519477 -0.358448 
-0.760234 -0.124601 -0.25031 -0.653873 -0.112154 -0.273352 -0.665229 -0.00706749 -0.28316 
-1.07572 0.013156 -0.0420069 -0.583286 -0.0488721 -0.248404 -0.608193 0.0318827 -0.273258 