# vtk DataFile Version 4.0
Generated by LIGGGHTS
ASCII
DATASET POLYDATA
POINTS 50 float
-0.00462371 0.0206347 0.00892681 -0.0131358 0.022667 0.00922152 -0.0124546 0.031784 0.0103875 
-0.0106535 -0.0244251 0.0146272 -0.00894204 -0.016163 0.0166259 -0.00953586 0.00971988 0.0165171 
-0.0190478 0.013684 0.0135495 -0.00174714 0.0260627 0.0132317 -0.0134792 -0.0343741 0.0171549 
-0.00618745 -0.0313193 0.0189622 -0.0299058 -0.00882918 0.0196086 -0.0208226 -0.00599195 0.0177289 
-0.0160886 0.0216478 0.0196536 -0.00408721 -0.0194644 0.02301 -0.0083641 0.00277185 0.0234672 
-0.00454319 0.0203252 0.0219629 -0.0244429 0.0229939 0.0204042 -0.00174502 0.0344165 0.0221917 
-0.00857183 -0.027925 0.0267614 -0.0118129 -0.0327991 0.0299648 -0.028663 -0.019004 0.0316731 
-0.0202974 -0.0199605 0.0297552 -0.0101549 -0.0158816 0.0310428 -0.0214597 -0.00448395 0.0311314 
-0.020721 -0.0135944 0.0321888 -0.0275046 -0.000700049 0.0328644 -0.0229734 0.000876534 0.0322428 
-0.0235267 0.0224168 0.0327737 -0.0219947 -0.0107694 0.0383112 -0.0240929 0.0291618 0.0359024 
-0.0327631 -0.0200888 0.0403857 -0.0127396 -0.0137041 0.041177 -0.000459601 -0.00791581 0.0408271 
-0.0160817 -0.000243398 0.0421158 -0.0221714 0.00979368 0.0429112 -0.0175025 -0.0228838 0.04521 
-0.0230202 -0.021037 0.043129 -0.0105626 -0.00654333 0.0463921 -0.0300659 -0.00019371 0.0436321 
-0.024531 -1.04943e-05 0.0461318 -0.027846 0.00485213 0.0436467 -0.018642 0.00531382 0.0464251 
-0.027916 0.0296421 0.0446625 -0.0159102 -0.0341757 0.0496763 -0.0294843 -0.0242442 0.0490889 
-0.0306884 0.0042356 0.0483091 -0.0178022 0.0256262 0.0481752 -0.021213 0.0304724 0.0490373 
-0.022804 -0.0140579 0.0505323 -0.00180681 0.0181929 0.0537558 
VERTICES 50 100
1 0 
1 1 
1 2 
1 3 
1 4 
1 5 
1 6 
1 7 
1 8 
1 9 
1 10 
1 11 
1 12 
1 13 
1 14 
1 15 
1 16 
1 17 
1 18 
1 19 
1 20 
1 21 
1 22 
1 23 
1 24 
1 25 
1 26 
1 27 
1 28 
1 29 
1 30 
1 31 
1 32 
1 33 
1 34 
1 35 
1 36 
1 37 
1 38 
1 39 
1 40 
1 41 
1 42 
1 43 
1 44 
1 45 
1 46 
1 47 
1 48 
1 49 

POINT_DATA 50
FIELD FieldData 7
id 1 50 int
7 9 11 5 12 8 6 1 3 
13 10 2 4 15 22 14 23 17 
25 20 21 24 18 19 32 16 31 
33 26 34 30 36 27 28 37 50 
35 45 29 49 43 48 44 38 40 
42 46 41 47 39 
type 1 50 int
1 1 1 1 1 1 1 1 1 
1 1 1 1 1 1 1 1 1 
1 1 1 1 1 1 1 1 1 
1 1 1 1 1 1 1 1 1 
1 1 1 1 1 1 1 1 1 
1 1 1 1 1 
i 3 50 int
0 0 0 0 0 0 0 0 0 
0 0 0 0 0 0 0 0 0 
0 0 0 0 0 0 0 0 0 
0 0 0 0 0 0 0 0 0 
0 0 0 0 0 0 0 0 0 
0 0 0 0 0 0 0 0 0 
0 0 0 0 0 0 0 0 0 
0 0 0 0 0 0 0 0 0 
0 0 0 0 0 0 0 0 0 
0 0 0 0 0 0 0 0 0 
0 0 0 0 0 0 0 0 0 
0 0 0 0 0 0 0 0 0 
0 0 0 0 0 0 0 0 0 
0 0 0 0 0 0 0 0 0 
0 0 0 0 0 0 0 0 0 
0 0 0 0 0 0 0 0 0 
0 0 0 0 0 0 
v 3 50 double
0 0 -1.34379 0 0 -1.34163 0 0 -1.3331 
0 0 -1.30151 0 0 -1.2864 0 0 -1.28719 
0 0 -1.30965 0 0 -1.31201 0 0 -1.28238 
0 0 -1.26845 0 0 -1.26345 0 0 -1.27797 
0 0 -1.26306 0 0 -1.23676 0 0 -1.23313 
0 0 -1.245 0 0 -1.25727 0 0 -1.24324 
0 0 -1.20665 0 0 -1.18026 0 0 -1.16603 
0 0 -1.18202 0 0 -1.17133 0 0 -1.17055 
0 0 -1.16162 0 0 -1.15593 0 0 -1.16123 
0 0 -1.15671 0 0 -1.10874 0 0 -1.12984 
0 0 -1.0902 0 0 -1.08314 0 0 -1.08628 
0 0 -1.07461 0 0 -1.06725 0 0 -1.04596 
0 0 -1.06529 0 0 -1.03478 0 0 -1.06067 
0 0 -1.03723 0 0 -1.06048 0 0 -1.03448 
0 0 -1.05106 0 0 -1.00319 0 0 -1.00888 
0 0 -1.01643 0 0 -1.01771 0 0 -1.00937 
0 0 -1 0 0 -1 
f 3 50 double
0 0 -0.000346714 0 0 -0.000346714 0 0 -0.000346714 
0 0 -0.00160516 0 0 -0.000346714 0 0 -0.000346714 
0 0 -0.000346714 0 0 -0.00160516 0 0 -0.00160516 
0 0 -0.000346714 0 0 -0.000346714 0 0 -0.00160516 
0 0 -0.00160516 0 0 -0.00160516 0 0 -0.000346714 
0 0 -0.00160516 0 0 -0.000346714 0 0 -0.00160516 
0 0 -0.000346714 0 0 -0.000346714 0 0 -0.000346714 
0 0 -0.000346714 0 0 -0.000346714 0 0 -0.000346714 
0 0 -0.000346714 0 0 -0.00160516 0 0 -0.000346714 
0 0 -0.000346714 0 0 -0.00160516 0 0 -0.000346714 
0 0 -0.000346714 0 0 -0.000346714 0 0 -0.00160516 
0 0 -0.00160516 0 0 -0.000346714 0 0 -0.000346714 
0 0 -0.000346714 0 0 -0.000346714 0 0 -0.00160516 
0 0 -0.000346714 0 0 -0.000346714 0 0 -0.000346714 
0 0 -0.000346714 0 0 -0.00160516 0 0 -0.00160516 
0 0 -0.000346714 0 0 -0.000346714 0 0 -0.00160516 
0 0 0 0 0 0 
radius 1 50 double
0.0015 0.0015 0.0015 0.0025 0.0015 0.0015 0.0015 0.0025 0.0025 
0.0015 0.0015 0.0025 0.0025 0.0025 0.0015 0.0025 0.0015 0.0025 
0.0015 0.0015 0.0015 0.0015 0.0015 0.0015 0.0015 0.0025 0.0015 
0.0015 0.0025 0.0015 0.0015 0.0015 0.0025 0.0025 0.0015 0.0015 
0.0015 0.0015 0.0025 0.0015 0.0015 0.0015 0.0015 0.0025 0.0025 
0.0015 0.0015 0.0025 0.0015 0.0025 
omega 3 50 double
0 0 0 0 0 0 0 0 0 
0 0 0 0 0 0 0 0 0 
0 0 0 0 0 0 0 0 0 
0 0 0 0 0 0 0 0 0 
0 0 0 0 0 0 0 0 0 
0 0 0 0 0 0 0 0 0 
0 0 0 0 0 0 0 0 0 
0 0 0 0 0 0 0 0 0 
0 0 0 0 0 0 0 0 0 
0 0 0 0 0 0 0 0 0 
0 0 0 0 0 0 0 0 0 
0 0 0 0 0 0 0 0 0 
0 0 0 0 0 0 0 0 0 
0 0 0 0 0 0 0 0 0 
0 0 0 0 0 0 0 0 0 
0 0 0 0 0 0 0 0 0 
0 0 0 0 0 0 
