# vtk DataFile Version 4.0
Generated by LIGGGHTS
ASCII
DATASET POLYDATA
POINTS 835 float
-0.202508 0.00390167 -0.191331 -0.202797 -0.0328841 -0.18624 -0.206823 0.0327789 -0.189106 
-0.20284 0.00789309 -0.19029 -0.213123 0.00725062 -0.189383 -0.200518 0.0129015 -0.188777 
-0.201487 -0.0252531 -0.188591 -0.480923 -0.0065034 -0.399335 -0.474802 0.00580542 -0.397162 
-0.486586 0.0228932 -0.400086 -0.486096 -0.00715279 -0.395715 -0.481073 0.0277385 -0.3942 
-0.459417 0.00511516 -0.390361 -0.464847 0.0093951 -0.392257 -0.479957 -0.00934257 -0.386665 
-0.477674 -0.0049553 -0.387684 -0.440058 0.00186735 -0.389058 -0.466544 0.00720258 -0.386982 
-0.475321 0.00796236 -0.384105 -0.452016 0.00991207 -0.383712 -0.436642 0.0107096 -0.373324 
-0.458595 -0.010951 -0.370122 -0.456869 -0.0137163 -0.368423 -0.457059 0.00504518 -0.366442 
-0.443972 0.00705457 -0.365588 -0.439463 0.00646207 -0.364761 -0.456075 0.0189855 -0.36449 
-0.441429 -0.0181623 -0.362791 -0.458905 0.00558948 -0.362905 -0.447836 -0.0172166 -0.357705 
-0.442184 -0.0156275 -0.357452 -0.437816 -0.0105783 -0.358342 -0.446887 0.000990978 -0.357907 
-0.438122 0.00244181 -0.360176 -0.441762 -0.0190562 -0.352067 -0.43762 -0.0115423 -0.350113 
-0.429725 -0.0283675 -0.345941 -0.439803 -0.00444349 -0.344266 -0.423869 -0.0150495 -0.341923 
-0.41434 -0.0164087 -0.339746 -0.431706 -0.00482701 -0.340589 -0.431986 -0.0115176 -0.336436 
-0.435386 -0.00942574 -0.336251 -0.431128 0.0142512 -0.336179 -0.440487 -0.0163931 -0.334456 
-0.443012 -0.00831282 -0.334422 -0.430709 -0.00877241 -0.332609 -0.420569 -0.00943253 -0.334504 
-0.435796 -0.0381269 -0.328035 -0.426386 -0.0116335 -0.328241 -0.417597 0.0165359 -0.328838 
-0.419425 -0.01915 -0.325893 -0.426021 0.00132439 -0.327067 -0.417221 0.00163478 -0.326484 
-0.413935 0.00674791 -0.32588 -0.420331 0.0237126 -0.326935 -0.426777 -0.00811521 -0.323947 
-0.421292 -0.00575427 -0.323507 -0.407641 0.0129472 -0.321608 -0.409029 0.015683 -0.321531 
-0.417969 0.0359656 -0.323956 -0.419995 -0.016142 -0.318119 -0.417666 -0.00902843 -0.317746 
-0.40731 0.00825312 -0.318266 -0.410317 0.000304049 -0.315361 -0.416177 0.00447813 -0.313653 
-0.413343 -0.00430761 -0.311002 -0.410972 0.00653902 -0.31145 -0.420974 0.0119347 -0.311401 
-0.405695 0.0144209 -0.313138 -0.414749 -0.0101631 -0.307277 -0.407686 0.00115579 -0.303357 
-0.389228 0.00390342 -0.305299 -0.394746 -0.018083 -0.300626 -0.39577 -0.00791223 -0.301557 
-0.394395 -0.00424496 -0.29932 -0.394187 0.00100252 -0.301464 -0.39008 0.00944634 -0.300309 
-0.380058 0.00980519 -0.299923 -0.396665 0.0110589 -0.30104 -0.400718 -0.0165641 -0.297672 
-0.393771 -0.0124548 -0.298229 -0.389317 -0.0109878 -0.296793 -0.385905 0.00786843 -0.296733 
-0.400532 -0.036117 -0.292179 -0.394117 -0.0267246 -0.292636 -0.391497 -0.0206107 -0.291947 
-0.392283 -0.00482017 -0.291583 -0.414119 0.000581509 -0.293264 -0.401539 0.00322656 -0.292018 
-0.384989 0.00134849 -0.292751 -0.378305 0.00105981 -0.294338 -0.388868 0.00549078 -0.294509 
-0.39996 0.0124321 -0.294472 -0.398484 -0.0119603 -0.290395 -0.394662 -0.0103272 -0.291602 
-0.387666 -0.0068418 -0.290275 -0.378399 -0.000704885 -0.290662 -0.396827 0.00563077 -0.289712 
-0.383615 0.00517537 -0.290677 -0.395617 0.0175062 -0.288564 -0.384964 -0.00369817 -0.285421 
-0.382427 0.00135143 -0.286814 -0.374714 0.00396772 -0.285574 -0.386615 0.00834059 -0.285685 
-0.380888 0.0074051 -0.284857 -0.382345 0.01044 -0.286803 -0.39073 -0.00696031 -0.283003 
-0.375297 -0.000444525 -0.282626 -0.389653 8.82916e-05 -0.281072 -0.381756 0.000395003 -0.282707 
-0.355671 0.00765073 -0.28182 -0.372958 0.0113854 -0.2818 -0.385916 0.0143695 -0.283257 
-0.379512 -0.0115866 -0.27688 -0.374801 0.00171058 -0.280012 -0.372013 0.00518865 -0.278694 
-0.398712 0.00834178 -0.27872 -0.37732 0.00851144 -0.277784 -0.385369 0.0184715 -0.278993 
-0.387752 -0.0323462 -0.273497 -0.366037 -0.00792748 -0.273506 -0.371687 0.00624883 -0.273288 
-0.380158 -0.0238922 -0.271859 -0.371486 -0.0190417 -0.272439 -0.372198 -0.00985622 -0.270093 
-0.368655 -0.00488373 -0.270485 -0.362894 0.00323629 -0.271038 -0.358149 0.000876257 -0.270997 
-0.378494 0.00963656 -0.272983 -0.36445 0.00982855 -0.273634 -0.376111 0.0185925 -0.270441 
-0.377863 0.0228826 -0.271321 -0.356592 -0.0198581 -0.26574 -0.379708 -0.0068401 -0.268094 
-0.368433 -0.00794331 -0.26617 -0.36606 -0.00467739 -0.266805 -0.361693 -0.0047888 -0.267715 
-0.365219 0.00377227 -0.26678 -0.363356 -0.015269 -0.263659 -0.366101 -0.0114483 -0.265753 
-0.364135 -0.00682153 -0.263938 -0.360276 0.000924417 -0.262936 -0.366749 0.00833185 -0.264567 
-0.36685 0.0190834 -0.265489 -0.359976 -0.0108557 -0.26137 -0.354438 -0.00615973 -0.259588 
-0.356131 -0.00261192 -0.261398 -0.356879 0.00313911 -0.259514 -0.355686 0.0157266 -0.25897 
-0.349529 -0.00837173 -0.255917 -0.349153 -0.00498956 -0.255688 -0.349635 0.00079845 -0.256023 
-0.350355 0.00448224 -0.257405 -0.35105 0.00851046 -0.257515 -0.351018 0.0129016 -0.256119 
-0.357678 0.0257648 -0.257081 -0.365047 0.0415761 -0.255395 -0.347345 -0.0112223 -0.253285 
-0.346313 -0.00311324 -0.252899 -0.34375 0.0102754 -0.252878 -0.338703 -0.0140942 -0.248563 
-0.334992 0.00383836 -0.247801 -0.338722 0.014016 -0.249982 -0.340272 0.0183592 -0.249741 
-0.335079 -0.0148358 -0.24659 -0.327349 -0.0098179 -0.243618 -0.329177 -0.00494742 -0.243718 
-0.330239 -0.000936009 -0.245468 -0.328911 0.00267838 -0.24377 -0.330729 0.00670403 -0.245608 
-0.326933 0.0100884 -0.243458 -0.334395 0.0129503 -0.245881 -0.330105 0.0122751 -0.244826 
-0.328331 0.0147755 -0.243555 -0.342793 0.0370128 -0.244194 -0.339113 -0.0308426 -0.243326 
-0.323893 -0.0197465 -0.240556 -0.326909 -0.0155518 -0.242596 -0.317076 -0.00391933 -0.23969 
-0.323299 0.00656923 -0.24206 -0.318618 0.00626658 -0.240057 -0.323008 0.010654 -0.240586 
-0.329225 0.0210674 -0.2417 -0.326064 0.0251796 -0.240449 -0.340567 -0.042514 -0.2395 
-0.315823 -0.0098705 -0.238752 -0.312613 -0.00885562 -0.236374 -0.314603 -0.00577334 -0.238575 
-0.310439 -0.00309487 -0.236932 -0.31472 0.00195382 -0.238728 -0.312034 0.00380863 -0.236395 
-0.317312 0.00970579 -0.238079 -0.313253 0.00930697 -0.237187 -0.316605 0.0138003 -0.238333 
-0.339665 0.0197387 -0.240605 -0.324621 0.021017 -0.239544 -0.319973 0.0219365 -0.237402 
-0.32186 0.0270631 -0.236986 -0.322821 0.0316336 -0.236938 -0.325488 -0.0364418 -0.235189 
-0.310038 -0.0297139 -0.232404 -0.305746 -0.00935885 -0.233518 -0.307839 -0.00675241 -0.235709 
-0.306378 -0.000482319 -0.235311 -0.308293 0.00531972 -0.235809 -0.313181 0.0153177 -0.235854 
-0.304076 0.0141292 -0.233376 -0.312504 0.0234867 -0.235081 -0.333862 0.0442198 -0.233407 
-0.313761 -0.0347939 -0.232339 -0.299536 -0.0174032 -0.230964 -0.297293 -0.013668 -0.229493 
-0.292369 0.00642361 -0.229024 -0.303006 0.0107645 -0.231468 -0.326387 0.0152142 -0.231011 
-0.31171 0.0351694 -0.231192 -0.291983 0.0115231 -0.228534 -0.299034 0.0236718 -0.228324 
-0.28875 0.021793 -0.22556 -0.299347 -0.0406027 -0.2228 -0.279197 -0.0154565 -0.222525 
-0.27932 -0.0122636 -0.223177 -0.276787 -0.0110589 -0.221751 -0.281191 -0.00746551 -0.22336 
-0.277866 -0.00173304 -0.223233 -0.281712 0.0211595 -0.222723 -0.282549 -0.0308086 -0.220899 
-0.269839 -0.00955612 -0.219497 -0.275394 -0.0014137 -0.221537 -0.268251 0.000655764 -0.219204 
-0.273533 0.00971277 -0.220961 -0.271202 0.00791459 -0.219778 -0.277535 0.0210458 -0.221 
-0.298421 -0.0553895 -0.21558 -0.26512 -0.0241935 -0.215355 -0.263452 -0.0214357 -0.215101 
-0.264713 -0.00764806 -0.216387 -0.259943 -0.00665563 -0.215493 -0.261569 0.00756872 -0.214959 
-0.264327 0.0124649 -0.215811 -0.263456 0.017704 -0.214621 -0.267006 0.0237861 -0.216245 
-0.270653 0.0268708 -0.216951 -0.258403 -0.0196543 -0.213386 -0.256081 -0.0074409 -0.212737 
-0.250816 -0.000447808 -0.21185 -0.254307 0.00251286 -0.213212 -0.258745 0.00330092 -0.213954 
-0.261801 0.0109105 -0.210951 -0.259411 0.0204258 -0.212522 -0.255629 0.0217627 -0.211796 
-0.263498 0.0245229 -0.214678 -0.256651 0.0255086 -0.211563 -0.265848 0.0293842 -0.213202 
-0.272386 0.0376878 -0.21345 -0.271154 0.0417587 -0.212288 -0.295071 0.0544167 -0.215007 
-0.256691 -0.0223919 -0.211005 -0.247744 -0.0238883 -0.20815 -0.246211 -0.0203901 -0.208034 
-0.250828 -0.0148702 -0.210862 -0.245601 -0.0168252 -0.208323 -0.2516 -0.0103688 -0.210687 
-0.247404 -0.0128977 -0.208546 -0.246905 -0.00793109 -0.208833 -0.24245 -0.00811351 -0.208025 
-0.241017 -0.00303338 -0.207685 -0.248157 0.000884078 -0.210661 -0.245794 -7.27281e-05 -0.208337 
-0.24693 0.00512628 -0.209975 -0.244141 0.00531079 -0.208801 -0.241316 0.00470815 -0.207628 
-0.249549 0.00740397 -0.210983 -0.24567 0.00806395 -0.209311 -0.247117 0.0124747 -0.209637 
-0.24434 0.0119874 -0.208534 -0.250309 0.0183418 -0.210118 -0.244105 0.0177501 -0.207591 
-0.253346 0.0230361 -0.210101 -0.249799 0.0238363 -0.207999 -0.265436 0.0381439 -0.211557 
-0.245862 -0.0270131 -0.206699 -0.240033 -0.00997859 -0.206822 -0.233867 0.00277632 -0.204531 
-0.242511 0.00878026 -0.206864 -0.240086 0.0124435 -0.206682 -0.240429 0.0161631 -0.205207 
-0.231633 -0.0133138 -0.201865 -0.229421 -0.0099951 -0.202264 -0.232253 -0.00563011 -0.203777 
-0.232234 -0.000442874 -0.202639 -0.247033 0.00221542 -0.20524 -0.233943 0.0236378 -0.201443 
-0.236595 0.0281921 -0.201384 -0.251167 0.0436412 -0.203634 -0.229406 -0.0369672 -0.197187 
-0.228658 -0.0285654 -0.199125 -0.227274 -0.0238202 -0.198446 -0.222389 -0.0247749 -0.197281 
-0.22375 -0.0206838 -0.198737 -0.225507 -0.0165413 -0.198933 -0.219068 -0.0124521 -0.197685 
-0.225515 -0.00939966 -0.199604 -0.226122 0.00774703 -0.200065 -0.219981 0.00735258 -0.197518 
-0.231124 0.0357525 -0.198378 -0.230816 -0.0304998 -0.194686 -0.218195 -0.0286798 -0.193606 
-0.2197 -0.0238112 -0.196224 -0.217005 -0.0204271 -0.194923 -0.227564 -0.0138024 -0.195205 
-0.215886 0.00146587 -0.195902 -0.213857 0.00555799 -0.196071 -0.210403 0.0036245 -0.193544 
-0.206097 0.00744148 -0.192809 -0.216995 0.0134892 -0.196749 -0.212866 0.0161524 -0.194718 
[...]
POINT_DATA 835
FIELD FieldData 7
id 1 835 int
556 520 615 548 445 574 489 218 206 
151 205 223 259 131 275 211 262 129 
210 152 292 260 314 299 243 155 300 
282 271 119 302 252 342 239 214 293 
149 219 295 220 279 286 189 208 320 
348 115 180 337 355 309 301 190 236 
289 325 193 256 184 288 272 221 212 
318 207 266 315 323 319 311 413 324 
172 249 106 217 251 254 197 160 365 
317 313 250 297 338 312 229 396 179 
284 169 341 242 403 350 255 107 308 
310 264 280 333 235 370 261 352 379 
225 307 269 213 345 380 253 346 168 
267 240 332 381 425 306 405 321 373 
305 344 283 294 389 356 404 359 406 
391 378 247 322 237 303 316 330 383 
504 336 285 241 354 401 376 226 331 
334 411 384 463 339 329 291 173 328 
296 438 392 335 248 393 441 395 402 
414 367 326 298 439 456 386 371 388 
377 426 468 419 362 398 358 432 273 
415 374 394 481 424 429 457 369 407 
496 448 535 437 409 349 400 447 421 
410 423 510 360 452 443 276 382 584 
490 442 446 399 523 195 385 462 470 
428 475 467 387 465 427 473 513 540 
618 464 460 343 472 458 471 357 502 
449 430 434 451 478 469 550 431 390 
459 397 483 494 436 477 484 418 363 
351 476 408 422 433 435 412 500 554 
466 375 340 353 416 440 453 480 417 
525 533 461 568 479 364 368 450 509 
455 492 505 599 561 537 573 526 501 
518 508 515 543 522 582 482 558 507 
541 560 546 361 420 611 495 538 444 
529 530 566 583 596 603 493 498 366 
645 454 572 578 499 630 564 619 514 
553 497 731 801 551 767 809 828 822 
512 545 531 503 488 528 591 524 845 
549 856 581 547 487 511 559 576 563 
542 594 589 506 491 588 474 517 627 
565 527 604 656 532 562 557 521 609 
534 620 586 516 676 614 519 486 577 
485 555 610 661 552 658 606 598 719 
628 602 682 711 650 587 571 580 654 
698 633 655 635 624 675 595 674 570 
621 625 644 575 629 590 692 647 608 
677 567 613 742 616 612 617 632 680 
607 631 585 683 671 673 536 600 734 
702 736 669 662 666 643 634 707 640 
636 544 641 685 637 592 712 699 715 
721 691 668 539 725 681 597 653 648 
657 775 700 716 569 652 697 593 688 
263 622 639 694 638 744 660 649 665 
642 720 651 626 690 601 646 739 678 
713 670 684 735 717 679 701 704 703 
623 667 727 714 664 730 747 696 718 
755 741 710 724 672 686 663 709 753 
708 784 732 695 579 776 794 687 756 
771 726 733 737 722 750 757 748 790 
723 738 782 795 729 706 803 853 754 
728 774 805 762 759 752 751 693 705 
766 789 788 827 792 780 785 787 740 
769 823 839 746 760 689 763 743 773 
783 781 765 764 797 808 778 761 812 
813 772 791 768 811 777 826 840 796 
846 1044 1046 830 817 799 1043 1039 779 
798 835 866 852 888 810 800 793 758 
821 851 806 836 770 879 834 859 831 
848 841 874 807 829 847 872 815 749 
804 816 844 838 786 819 824 843 882 
880 889 870 842 892 868 861 887 863 
871 855 825 820 849 862 900 878 875 
659 833 814 858 894 818 881 905 864 
886 877 883 873 893 884 898 865 902 
867 896 891 876 860 906 837 854 832 
890 885 869 802 897 857 850 907 904 
903 901 899 895 911 914 917 745 913 
919 915 916 920 909 910 918 908 924 
912 933 605 930 923 927 931 928 925 
922 926 929 932 921 945 944 935 943 
946 936 940 938 941 939 937 942 934 
957 953 948 947 954 951 955 956 958 
952 949 950 961 965 966 968 963 962 
969 971 967 970 959 960 964 978 976 
972 983 975 981 980 977 974 982 979 
973 992 986 993 987 989 991 995 988 
994 1004 1009 984 990 996 985 1007 1001 
1003 1006 1008 998 1005 997 1020 1002 999 
1019 1013 1022 1014 1021 1000 1017 1011 1016 
1018 1015 1012 1010 1031 1026 1027 1029 1025 
1028 1034 1032 1024 1033 1023 1035 1030 1040 
1038 1042 1045 1037 1047 1036 1041 
type 1 835 int
1 1 1 1 1 1 1 1 1 
1 1 1 1 1 1 1 1 1 
1 1 1 1 1 1 1 1 1 
1 1 1 1 1 1 1 1 1 
1 1 1 1 1 1 1 1 1 
1 1 1 1 1 1 1 1 1 
1 1 1 1 1 1 1 1 1 
1 1 1 1 1 1 1 1 1 
1 1 1 1 1 1 1 1 1 
1 1 1 1 1 1 1 1 1 
1 1 1 1 1 1 1 1 1 
1 1 1 1 1 1 1 1 1 
1 1 1 1 1 1 1 1 1 
1 1 1 1 1 1 1 1 1 
1 1 1 1 1 1 1 1 1 
1 1 1 1 1 1 1 1 1 
1 1 1 1 1 1 1 1 1 
1 1 1 1 1 1 1 1 1 
1 1 1 1 1 1 1 1 1 
1 1 1 1 1 1 1 1 1 
1 1 1 1 1 1 1 1 1 
1 1 1 1 1 1 1 1 1 
1 1 1 1 1 1 1 1 1 
1 1 1 1 1 1 1 1 1 
1 1 1 1 1 1 1 1 1 
1 1 1 1 1 1 1 1 1 
1 1 1 1 1 1 1 1 1 
1 1 1 1 1 1 1 1 1 
1 1 1 1 1 1 1 1 1 
1 1 1 1 1 1 1 1 1 
1 1 1 1 1 1 1 1 1 
1 1 1 1 1 1 1 1 1 
1 1 1 1 1 1 1 1 1 
1 1 1 1 1 1 1 1 1 
1 1 1 1 1 1 1 1 1 
1 1 1 1 1 1 1 1 1 
1 1 1 1 1 1 1 1 1 
1 1 1 1 1 1 1 1 1 
1 1 1 1 1 1 1 1 1 
1 1 1 1 1 1 1 1 1 
1 1 1 1 1 1 1 1 1 
1 1 1 1 1 1 1 1 1 
1 1 1 1 1 1 1 1 1 
1 1 1 1 1 1 1 1 1 
1 1 1 1 1 1 1 1 1 
1 1 1 1 1 1 1 1 1 
1 1 1 1 1 1 1 1 1 
1 1 1 1 1 1 1 1 1 
1 1 1 1 1 1 1 1 1 
1 1 1 1 1 1 1 1 1 
1 1 1 1 1 1 1 1 1 
1 1 1 1 1 1 1 1 1 
1 1 1 1 1 1 1 1 1 
1 1 1 1 1 1 1 1 1 
1 1 1 1 1 1 1 1 1 
1 1 1 1 1 1 1 1 1 
1 1 1 1 1 1 1 1 1 
1 1 1 1 1 1 1 1 1 
1 1 1 1 1 1 1 1 1 
1 1 1 1 1 1 1 1 1 
1 1 1 1 1 1 1 1 1 
1 1 1 1 1 1 1 1 1 
1 1 1 1 1 1 1 1 1 
1 1 1 1 1 1 1 1 1 
1 1 1 1 1 1 1 1 1 
1 1 1 1 1 1 1 1 1 
1 1 1 1 1 1 1 1 1 
1 1 1 1 1 1 1 1 1 
1 1 1 1 1 1 1 1 1 
1 1 1 1 1 1 1 1 1 
1 1 1 1 1 1 1 1 1 
1 1 1 1 1 1 1 1 1 
1 1 1 1 1 1 1 1 1 
1 1 1 1 1 1 1 1 1 
1 1 1 1 1 1 1 1 1 
1 1 1 1 1 1 1 1 1 
1 1 1 1 1 1 1 1 1 
1 1 1 1 1 1 1 1 1 
1 1 1 1 1 1 1 1 1 
1 1 1 1 1 1 1 1 1 
1 1 1 1 1 1 1 1 1 
1 1 1 1 1 1 1 1 1 
1 1 1 1 1 1 1 1 1 
1 1 1 1 1 1 1 1 1 
1 1 1 1 1 1 1 1 1 
1 1 1 1 1 1 1 1 1 
1 1 1 1 1 1 1 1 1 
1 1 1 1 1 1 1 1 1 
1 1 1 1 1 1 1 1 1 
1 1 1 1 1 1 1 1 1 
1 1 1 1 1 1 1 1 1 
1 1 1 1 1 1 1 1 1 
1 1 1 1 1 1 1 
i 3 835 int
0 0 0 0 0 0 0 0 0 
0 0 0 0 0 0 0 0 0 
0 0 0 0 0 0 0 0 0 
0 0 0 0 0 0 0 0 0 
0 0 0 0 0 0 0 0 0 
0 0 0 0 0 0 0 0 0 
0 0 0 0 0 0 0 0 0 
0 0 0 0 0 0 0 0 0 
0 0 0 0 0 0 0 0 0 
0 0 0 0 0 0 0 0 0 
0 0 0 0 0 0 0 0 0 
0 0 0 0 0 0 0 0 0 
0 0 0 0 0 0 0 0 0 
0 0 0 0 0 0 0 0 0 
0 0 0 0 0 0 0 0 0 
0 0 0 0 0 0 0 0 0 
0 0 0 0 0 0 0 0 0 
0 0 0 0 0 0 0 0 0 
0 0 0 0 0 0 0 0 0 
0 0 0 0 0 0 0 0 0 
0 0 0 0 0 0 0 0 0 
0 0 0 0 0 0 0 0 0 
0 0 0 0 0 0 0 0 0 
0 0 0 0 0 0 0 0 0 
0 0 0 0 0 0 0 0 0 
0 0 0 0 0 0 0 0 0 
0 0 0 0 0 0 0 0 0 
0 0 0 0 0 0 0 0 0 
0 0 0 0 0 0 0 0 0 
0 0 0 0 0 0 0 0 0 
0 0 0 0 0 0 0 0 0 
0 0 0 0 0 0 0 0 0 
0 0 0 0 0 0 0 0 0 
0 0 0 0 0 0 0 0 0 
0 0 0 0 0 0 0 0 0 
0 0 0 0 0 0 0 0 0 
0 0 0 0 0 0 0 0 0 
0 0 0 0 0 0 0 0 0 
0 0 0 0 0 0 0 0 0 
0 0 0 0 0 0 0 0 0 
0 0 0 0 0 0 0 0 0 
0 0 0 0 0 0 0 0 0 
0 0 0 0 0 0 0 0 0 
0 0 0 0 0 0 0 0 0 
0 0 0 0 0 0 0 0 0 
0 0 0 0 0 0 0 0 0 
0 0 0 0 0 0 0 0 0 
0 0 0 0 0 0 0 0 0 
0 0 0 0 0 0 0 0 0 
0 0 0 0 0 0 0 0 0 
0 0 0 0 0 0 0 0 0 
0 0 0 0 0 0 0 0 0 
0 0 0 0 0 0 0 0 0 
0 0 0 0 0 0 0 0 0 
0 0 0 0 0 0 0 0 0 
0 0 0 0 0 0 0 0 0 
0 0 0 0 0 0 0 0 0 
0 0 0 0 0 0 0 0 0 
0 0 0 0 0 0 0 0 0 
0 0 0 0 0 0 0 0 0 
0 0 0 0 0 0 0 0 0 
0 0 0 0 0 0 0 0 0 
0 0 0 0 0 0 0 0 0 
0 0 0 0 0 0 0 0 0 
0 0 0 0 0 0 0 0 0 
0 0 0 0 0 0 0 0 0 
0 0 0 0 0 0 0 0 0 
0 0 0 0 0 0 0 0 0 
0 0 0 0 0 0 0 0 0 
0 0 0 0 0 0 0 0 0 
0 0 0 0 0 0 0 0 0 
0 0 0 0 0 0 0 0 0 
0 0 0 0 0 0 0 0 0 
0 0 0 0 0 0 0 0 0 
0 0 0 0 0 0 0 0 0 
0 0 0 0 0 0 0 0 0 
0 0 0 0 0 0 0 0 0 
0 0 0 0 0 0 0 0 0 
0 0 0 0 0 0 0 0 0 
0 0 0 0 0 0 0 0 0 
0 0 0 0 0 0 0 0 0 
0 0 0 0 0 0 0 0 0 
0 0 0 0 0 0 0 0 0 
0 0 0 0 0 0 0 0 0 
0 0 0 0 0 0 0 0 0 
0 0 0 0 0 0 0 0 0 
0 0 0 0 0 0 0 0 0 
0 0 0 0 0 0 0 0 0 
0 0 0 0 0 0 0 0 0 
0 0 0 0 0 0 0 0 0 
0 0 0 0 0 0 0 0 0 
0 0 0 0 0 0 0 0 0 
0 0 0 0 0 0 0 0 0 
0 0 0 0 0 0 0 0 0 
0 0 0 0 0 0 0 0 0 
0 0 0 0 0 0 0 0 0 
0 0 0 0 0 0 0 0 0 
0 0 0 0 0 0 0 0 0 
0 0 0 0 0 0 0 0 0 
0 0 0 0 0 0 0 0 0 
0 0 0 0 0 0 0 0 0 
0 0 0 0 0 0 0 0 0 
0 0 0 0 0 0 0 0 0 
0 0 0 0 0 0 0 0 0 
0 0 0 0 0 0 0 0 0 
0 0 0 0 0 0 0 0 0 
0 0 0 0 0 0 0 0 0 
0 0 0 0 0 0 0 0 0 
0 0 0 0 0 0 0 0 0 
0 0 0 0 0 0 0 0 0 
0 0 0 0 0 0 0 0 0 
0 0 0 0 0 0 0 0 0 
0 0 0 0 0 0 0 0 0 
0 0 0 0 0 0 0 0 0 
0 0 0 0 0 0 0 0 0 
0 0 0 0 0 0 0 0 0 
0 0 0 0 0 0 0 0 0 
0 0 0 0 0 0 0 0 0 
0 0 0 0 0 0 0 0 0 
0 0 0 0 0 0 0 0 0 
0 0 0 0 0 0 0 0 0 
0 0 0 0 0 0 0 0 0 
0 0 0 0 0 0 0 0 0 
0 0 0 0 0 0 0 0 0 
0 0 0 0 0 0 0 0 0 
0 0 0 0 0 0 0 0 0 
0 0 0 0 0 0 0 0 0 
0 0 0 0 0 0 0 0 0 
0 0 0 0 0 0 0 0 0 
0 0 0 0 0 0 0 0 0 
0 0 0 0 0 0 0 0 0 
0 0 0 0 0 0 0 0 0 
0 0 0 0 0 0 0 0 0 
0 0 0 0 0 0 0 0 0 
0 0 0 0 0 0 0 0 0 
0 0 0 0 0 0 0 0 0 
0 0 0 0 0 0 0 0 0 
0 0 0 0 0 0 0 0 0 
0 0 0 0 0 0 0 0 0 
0 0 0 0 0 0 0 0 0 
0 0 0 0 0 0 0 0 0 
0 0 0 0 0 0 0 0 0 
0 0 0 0 0 0 0 0 0 
0 0 0 0 0 0 0 0 0 
0 0 0 0 0 0 0 0 0 
0 0 0 0 0 0 0 0 0 
0 0 0 0 0 0 0 0 0 
0 0 0 0 0 0 0 0 0 
0 0 0 0 0 0 0 0 0 
0 0 0 0 0 0 0 0 0 
0 0 0 0 0 0 0 0 0 
0 0 0 0 0 0 0 0 0 
0 0 0 0 0 0 0 0 0 
0 0 0 0 0 0 0 0 0 
0 0 0 0 0 0 0 0 0 
0 0 0 0 0 0 0 0 0 
0 0 0 0 0 0 0 0 0 
0 0 0 0 0 0 0 0 0 
0 0 0 0 0 0 0 0 0 
0 0 0 0 0 0 0 0 0 
0 0 0 0 0 0 0 0 0 
0 0 0 0 0 0 0 0 0 
0 0 0 0 0 0 0 0 0 
0 0 0 0 0 0 0 0 0 
0 0 0 0 0 0 0 0 0 
0 0 0 0 0 0 0 0 0 
0 0 0 0 0 0 0 0 0 
0 0 0 0 0 0 0 0 0 
0 0 0 0 0 0 0 0 0 
0 0 0 0 0 0 0 0 0 
0 0 0 0 0 0 0 0 0 
0 0 0 0 0 0 0 0 0 
0 0 0 0 0 0 0 0 0 
0 0 0 0 0 0 0 0 0 
0 0 0 0 0 0 0 0 0 
0 0 0 0 0 0 0 0 0 
0 0 0 0 0 0 0 0 0 
0 0 0 0 0 0 0 0 0 
0 0 0 0 0 0 0 0 0 
0 0 0 0 0 0 0 0 0 
0 0 0 0 0 0 0 0 0 
0 0 0 0 0 0 0 0 0 
0 0 0 0 0 0 0 0 0 
0 0 0 0 0 0 0 0 0 
0 0 0 0 0 0 0 0 0 
0 0 0 0 0 0 0 0 0 
0 0 0 0 0 0 0 0 0 
0 0 0 0 0 0 0 0 0 
0 0 0 0 0 0 0 0 0 
0 0 0 0 0 0 0 0 0 
0 0 0 0 0 0 0 0 0 
0 0 0 0 0 0 0 0 0 
0 0 0 0 0 0 0 0 0 
0 0 0 0 0 0 0 0 0 
0 0 0 0 0 0 0 0 0 
0 0 0 0 0 0 0 0 0 
0 0 0 0 0 0 0 0 0 
0 0 0 0 0 0 0 0 0 
0 0 0 0 0 0 0 0 0 
0 0 0 0 0 0 0 0 0 
0 0 0 0 0 0 0 0 0 
0 0 0 0 0 0 0 0 0 
0 0 0 0 0 0 0 0 0 
0 0 0 0 0 0 0 0 0 
0 0 0 0 0 0 0 0 0 
0 0 0 0 0 0 0 0 0 
0 0 0 0 0 0 0 0 0 
0 0 0 0 0 0 0 0 0 
0 0 0 0 0 0 0 0 0 
0 0 0 0 0 0 0 0 0 
0 0 0 0 0 0 0 0 0 
0 0 0 0 0 0 0 0 0 
0 0 0 0 0 0 0 0 0 
0 0 0 0 0 0 0 0 0 
0 0 0 0 0 0 0 0 0 
0 0 0 0 0 0 0 0 0 
0 0 0 0 0 0 0 0 0 
0 0 0 0 0 0 0 0 0 
0 0 0 0 0 0 0 0 0 
0 0 0 0 0 0 0 0 0 
0 0 0 0 0 0 0 0 0 
0 0 0 0 0 0 0 0 0 
0 0 0 0 0 0 0 0 0 
0 0 0 0 0 0 0 0 0 
0 0 0 0 0 0 0 0 0 
0 0 0 0 0 0 0 0 0 
0 0 0 0 0 0 0 0 0 
0 0 0 0 0 0 0 0 0 
0 0 0 0 0 0 0 0 0 
0 0 0 0 0 0 0 0 0 
0 0 0 0 0 0 0 0 0 
0 0 0 0 0 0 0 0 0 
0 0 0 0 0 0 0 0 0 
0 0 0 0 0 0 0 0 0 
0 0 0 0 0 0 0 0 0 
0 0 0 0 0 0 0 0 0 
0 0 0 0 0 0 0 0 0 
0 0 0 0 0 0 0 0 0 
0 0 0 0 0 0 0 0 0 
0 0 0 0 0 0 0 0 0 
0 0 0 0 0 0 0 0 0 
0 0 0 0 0 0 0 0 0 
0 0 0 0 0 0 0 0 0 
0 0 0 0 0 0 0 0 0 
0 0 0 0 0 0 0 0 0 
0 0 0 0 0 0 0 0 0 
0 0 0 0 0 0 0 0 0 
0 0 0 0 0 0 0 0 0 
0 0 0 0 0 0 0 0 0 
0 0 0 0 0 0 0 0 0 
0 0 0 0 0 0 0 0 0 
0 0 0 0 0 0 0 0 0 
0 0 0 0 0 0 0 0 0 
0 0 0 0 0 0 0 0 0 
0 0 0 0 0 0 0 0 0 
0 0 0 0 0 0 0 0 0 
0 0 0 0 0 0 0 0 0 
0 0 0 0 0 0 0 0 0 
0 0 0 0 0 0 0 0 0 
0 0 0 0 0 0 0 0 0 
0 0 0 0 0 0 0 0 0 
0 0 0 0 0 0 0 0 0 
0 0 0 0 0 0 0 0 0 
0 0 0 0 0 0 0 0 0 
0 0 0 0 0 0 0 0 0 
0 0 0 0 0 0 0 0 0 
0 0 0 0 0 0 0 0 0 
0 0 0 0 0 0 0 0 0 
0 0 0 0 0 0 0 0 0 
0 0 0 0 0 0 0 0 0 
0 0 0 0 0 0 0 0 0 
0 0 0 0 0 0 0 0 0 
0 0 0 0 0 0 0 0 0 
0 0 0 0 0 0 0 0 0 
0 0 0 0 0 0 0 0 0 
0 0 0 0 0 0 0 0 0 
0 0 0 0 0 0 0 0 0 
0 0 0 0 0 0 0 0 0 
0 0 0 
v 3 835 double
-0.760399 0.0088409 -0.316185 -0.934591 -0.0541657 -0.367538 -1.07086 -0.110454 -0.46094 
-0.820314 0.0296188 -0.345692 -0.80372 -0.0101116 -0.321825 -0.852314 0.0365601 -0.348548 
-0.837244 -0.0814412 -0.321532 -1.15837 0.0255994 -1.82496 -1.06454 -0.0534303 -1.77997 
-1.18598 0.0133406 -1.84558 -1.20847 0.100333 -1.82377 -1.14454 -0.0502975 -1.82308 
-0.988315 -0.0585331 -1.76457 -0.994845 0.0570758 -1.8858 -1.21534 0.0872638 -1.7689 
-1.10167 0.0688633 -1.72268 -0.922339 -0.0354127 -1.81692 -1.09646 0.108861 -1.73512 
-1.17791 -0.0979554 -1.72689 -0.999721 0.112045 -1.7398 -0.859968 -0.134624 -1.68008 
-1.10672 -0.0694735 -1.64626 -1.10149 -0.0704883 -1.63486 -1.14507 -0.146483 -1.65668 
-0.960219 0.050049 -1.60289 -0.954143 0.0332181 -1.60349 -1.11947 -0.0587727 -1.63912 
-0.963045 -0.0675668 -1.60519 -1.12307 -0.0114813 -1.57975 -1.11013 -0.0513517 -1.58085 
-1.0474 -0.0533278 -1.60507 -0.966921 -0.0215957 -1.56369 -1.09262 -0.139258 -1.5989 
-0.966315 -0.00813597 -1.57278 -1.08364 -0.0804219 -1.55551 -1.00002 -0.0294596 -1.50615 
-0.964282 -0.208926 -1.48214 -1.18535 0.015645 -1.57424 -1.0399 0.0239732 -1.55226 
-0.920937 -0.15804 -1.4788 -1.03822 -0.0725238 -1.45934 -1.07903 0.0716724 -1.52252 
-1.10189 0.0558243 -1.44071 -1.09174 0.107324 -1.43551 -1.185 0.181286 -1.47814 
-1.22956 0.218808 -1.46929 -1.13028 0.0706817 -1.43528 -0.931525 -0.0507589 -1.39631 
-1.05424 0.0128972 -1.4016 -1.0994 0.0609424 -1.41066 -0.957441 0.00412971 -1.37463 
-1.0581 -0.260259 -1.36695 -1.07806 0.0159724 -1.36571 -0.998607 -0.103271 -1.36219 
-0.955503 -0.0809711 -1.35626 -0.981793 -0.03774 -1.37886 -1.19731 -0.0137659 -1.39526 
-1.02124 -0.114491 -1.31205 -0.918825 -0.0745457 -1.33647 -0.903137 -0.0626823 -1.32501 
-0.933584 0.0654867 -1.34577 -1.09636 -0.00644754 -1.30588 -1.02462 0.0728468 -1.27752 
-0.917667 -0.0825723 -1.30406 -1.1057 -0.0822859 -1.32215 -1.13785 -0.0769281 -1.29407 
-1.12261 0.112501 -1.25921 -1.10061 -0.0949063 -1.26976 -1.25622 -0.111964 -1.31195 
-0.927815 -0.0557572 -1.25501 -1.20211 0.11334 -1.251 -1.09055 -0.10352 -1.17035 
-0.897172 0.0806651 -1.21877 -1.00141 -0.0479294 -1.221 -0.937067 0.00432739 -1.15027 
-0.954853 0.0254883 -1.15574 -0.918801 0.0548237 -1.1459 -0.865269 0.0872996 -1.14858 
-0.760905 0.0124987 -1.18805 -0.990953 0.0356527 -1.16561 -1.07261 0.105866 -1.16074 
-0.935529 -0.0108325 -1.13686 -0.9209 0.0381036 -1.111 -0.85201 0.0159211 -1.0901 
-1.02912 -0.0472918 -1.10541 -0.957283 0.00957379 -1.0936 -0.96573 -0.0302623 -1.07404 
-0.97751 0.0643312 -1.06033 -1.33799 0.0333986 -1.26283 -1.12071 0.123413 -1.11288 
-0.935655 -0.0389307 -1.08945 -0.76392 0.0590105 -1.09399 -0.925343 0.0662725 -1.0992 
-1.13862 -0.0137652 -1.13543 -1.12827 0.0575809 -1.0374 -1.2095 0.0876381 -1.16673 
-0.97657 0.060896 -1.08376 -0.849407 -0.00249987 -1.06347 -1.06094 -0.0753973 -1.02983 
-0.901075 -0.0182385 -1.05455 -1.21787 -0.0518661 -1.10646 -0.99625 0.0594318 -1.02337 
-0.934124 -0.0763373 -1.0202 -0.854114 0.0622507 -1.01021 -1.06876 -0.0317377 -1.05006 
-1.03471 -0.0487233 -1.05011 -1.04059 -0.0404223 -1.09056 -1.13238 0.0979883 -0.958502 
-0.819169 0.0463987 -0.952183 -1.02909 -0.0378351 -0.955117 -0.968472 -0.0763169 -1.00006 
-0.662324 -0.0890583 -1.09027 -0.937475 0.00207854 -1.10014 -1.13952 -0.0299208 -1.05968 
-1.08619 -0.00364078 -0.953831 -0.851679 0.0719661 -0.938881 -0.843059 0.0562793 -0.917772 
-1.15438 -0.0265574 -0.928994 -0.998687 0.0478707 -0.943081 -1.15658 -0.0380869 -1.0046 
-1.13236 0.123357 -0.985922 -0.942141 -0.0142409 -0.918196 -1.00077 -0.0351216 -0.9072 
-1.13637 -0.0599097 -0.921014 -0.964021 0.000529939 -0.885071 -1.16109 0.0929289 -0.886558 
-0.944002 -0.00261316 -0.877898 -0.815737 0.027157 -0.863055 -0.815334 0.0221386 -0.916462 
-1.16801 -0.120018 -0.911943 -0.905419 -0.00201857 -1.2019 -1.24496 -0.140129 -0.966106 
-1.24383 -0.262663 -1.0161 -0.69999 -0.0786664 -0.779651 -1.1395 0.122618 -0.859446 
-1.0895 0.0920915 -0.884403 -0.999713 0.0646823 -0.737791 -0.897555 -0.0365125 -0.818587 
-0.952244 -0.255493 -0.890323 -1.0939 0.0603272 -0.783461 -1.10036 0.0211727 -0.835996 
-1.0953 0.0345285 -0.78995 -0.971428 0.0440415 -0.750358 -1.21554 -0.15841 -0.775076 
-1.17575 -0.099752 -0.877177 -1.17191 0.136454 -0.798371 -1.02054 -0.000885128 -0.723884 
-0.95652 -0.0325731 -0.78633 -1.096 0.0350439 -0.72077 -1.11442 -0.0942779 -0.775627 
-1.04336 -0.0159088 -0.678853 -1.07785 0.00966422 -0.683164 -1.02317 -0.0067846 -0.688205 
-1.00131 -0.00610464 -0.737315 -1.03023 -0.0325939 -0.712545 -1.00241 -0.0354454 -0.705224 
-1.16571 -0.288707 -0.851648 -1.11682 0.0692231 -0.742033 -1.05493 -0.0341769 -0.663057 
-1.08108 0.0146906 -0.656052 -0.970163 -0.0787416 -0.632805 -1.09945 0.0804293 -0.596365 
-1.15066 0.15227 -0.588065 -0.927618 -0.0602206 -0.615827 -0.893744 0.057118 -0.564538 
-1.09474 0.0645417 -0.561793 -0.931863 0.0771087 -0.436412 -0.895343 0.129014 -0.445065 
-1.09892 0.150196 -0.527331 -0.974967 -0.0517911 -0.475115 -0.929439 0.0129178 -0.483145 
-1.09262 -0.103484 -0.511065 -1.04894 0.0807352 -0.549306 -1.07773 -0.0167849 -0.527814 
-1.05677 -0.0150435 -0.500925 -1.26359 0.0641379 -0.630565 -1.04671 0.136552 -0.585158 
-1.12546 0.0102713 -0.460568 -1.13767 0.00659103 -0.487605 -0.943654 -0.019581 -0.372179 
-1.03708 -0.0783032 -0.455001 -0.985261 -0.124732 -0.437344 -1.10793 -0.0269179 -0.475064 
-1.07203 -0.0363971 -0.530219 -1.07598 0.00958493 -0.473907 -1.17388 0.319776 -0.695457 
-0.966629 -0.0656497 -0.427543 -0.964977 0.027748 -0.440358 -0.929821 -0.0369108 -0.367258 
-0.976069 -0.0545186 -0.409632 -0.942148 0.0347686 -0.394936 -0.945115 0.0254801 -0.395894 
-1.0722 -0.027577 -0.449955 -1.0222 -0.00219769 -0.612078 -0.968516 -0.0356783 -0.521194 
-1.17184 0.130419 -0.799437 -1.06971 -0.0279426 -0.472042 -1.11602 -0.0351202 -0.472733 
-1.2917 -0.0879215 -0.555416 -0.935785 0.00638507 -0.378308 -1.13144 -0.031255 -0.493571 
-1.01109 0.0493031 -0.407107 -0.917952 -0.077937 -0.376976 -0.934694 -0.0954225 -0.387034 
-1.07478 -0.0884788 -0.450651 -0.920547 0.00924591 -0.387025 -1.11532 -0.142777 -0.493507 
-1.0349 -0.00243393 -0.40905 -0.95625 -0.0398715 -0.407077 -1.06557 0.132866 -0.284849 
-1.1436 0.162538 -0.592418 -1.1534 0.068823 -0.465855 -1.09239 0.0442113 -0.463766 
-0.868305 0.0767877 -0.361776 -0.869702 0.0141972 -0.386195 -1.31063 -0.0663258 -0.435167 
-0.861623 0.0119624 -0.346384 -1.03832 -0.0587162 -0.442254 -1.15103 -0.0998445 -0.502797 
-1.03036 -0.00297089 -0.419775 -1.16971 0.0968676 -0.502695 -1.05429 -0.115628 -0.410077 
-0.872648 -0.0251369 -0.36428 -0.867939 0.0298751 -0.376647 -1.04707 -0.0745081 -0.438978 
-0.822045 0.0314749 -0.348113 -1.01798 -0.0520511 -0.451034 -0.900891 -0.0212472 -0.365187 
-0.980064 0.0637473 -0.416823 -0.788652 0.0161408 -0.400485 -1.05463 -0.0440551 -0.456113 
-0.798102 0.126353 -0.318634 -0.856561 -0.0252629 -0.317177 -0.954676 0.0613111 -0.380059 
-1.36099 0.0596041 -0.505815 -1.10395 0.160383 -0.507584 -0.947536 0.110891 -0.439021 
-0.975089 0.0153836 -0.41411 -0.938999 0.0987091 -0.402405 -0.962708 -0.0126613 -0.413824 
-0.870044 0.0646752 -0.356293 -0.868464 0.0811355 -0.347976 -0.696151 -0.0848394 -0.303413 
-1.09815 -0.35817 -0.550409 -0.941032 0.0385766 -0.390287 -0.916481 0.0123494 -0.384684 
-0.761603 -0.045148 -0.325954 -1.00621 -0.0716142 -0.428435 -0.997294 -0.0617498 -0.427709 
-0.838668 -0.0837863 -0.349094 -0.84136 0.0670356 -0.340216 -0.804261 0.0298353 -0.339333 
-1.08835 -0.256719 -0.516781 -0.844419 -0.0293148 -0.359803 -1.00958 -0.0674776 -0.439545 
-0.850102 0.0441424 -0.329616 -1.10236 -0.279132 -0.558506 -0.97361 -0.522101 -0.699541 
-0.945034 0.0451626 -0.379023 -0.83377 -0.0292846 -0.350848 -0.775849 0.01908 -0.316217 
-0.820653 0.0210562 -0.386949 -0.91992 0.0387342 -0.372342 -0.882793 0.0439305 -0.373867 
-0.883328 0.0501529 -0.367631 -0.87646 0.049337 -0.373878 -0.957384 -0.10876 -0.413234 
-0.908281 -0.0712806 -0.377649 -0.743661 0.0318044 -0.304268 -0.775082 -0.0559795 -0.309397 
-0.765515 0.130101 -0.3154 -0.767519 0.0829722 -0.317322 -0.771308 0.0255914 -0.327321 
-0.979051 -0.0555227 -0.412285 -0.933035 0.0440529 -0.38952 -0.947277 -0.0692531 -0.410962 
-0.934622 -0.0200849 -0.397623 -0.943573 -0.0771512 -0.40283 -0.890683 -0.0428483 -0.374388 
-0.849918 0.0626798 -0.21384 -0.983165 -0.00167951 -0.407444 -1.07291 -0.223065 -0.507965 
-0.909057 -0.0689743 -0.335059 -0.886264 -0.0685455 -0.390382 -0.797025 0.142091 -0.303074 
-0.896619 0.00528687 -0.380777 -0.914598 -0.0238447 -0.393134 -0.87217 -0.0204124 -0.363343 
-0.794276 0.0121295 -0.329967 -0.761453 0.0125572 -0.305421 -0.944217 0.0580566 -0.405938 
-0.968022 -0.0392659 -0.302589 -1.1514 0.0184262 -0.837121 -0.984058 0.0562021 -0.388257 
-1.0307 0.0423825 -0.410067 -1.10254 0.000215223 -0.440494 -0.965733 -0.0459779 -0.368191 
-0.832909 -0.103591 -0.330318 -0.757832 -0.0744359 -0.294536 -0.87598 -0.142776 -0.329813 
-0.773327 -0.0311549 -0.312237 -0.793917 -0.106438 -0.316597 -0.83814 -0.00666014 -0.346747 
-0.79496 0.0435582 -0.344399 -0.850069 -0.0461523 -0.354548 -0.837462 -0.0502914 -0.349496 
-0.741692 -0.055381 -0.315644 -0.735392 -0.0262748 -0.461395 -0.651975 -0.0330766 -0.258875 
-0.898844 0.00182726 -0.289243 -0.729484 -0.114004 -0.262266 -1.10079 0.0869435 -0.52709 
-0.553492 -0.0626808 -0.237909 -0.621403 0.0123961 -0.26625 -0.610239 -0.00400644 -0.253813 