# vtk DataFile Version 4.0
Generated by LIGGGHTS
ASCII
DATASET POLYDATA
POINTS 754 float
-0.20662 0.0266312 -0.189095 -0.206836 0.00161284 -0.189186 -0.203698 -0.0137192 -0.187927 
-0.478476 -0.00437226 -0.394877 -0.484456 0.00899175 -0.396082 -0.479498 -0.00636242 -0.386654 
-0.492098 -0.0359992 -0.384438 -0.479387 0.0344235 -0.379102 -0.469623 0.00535008 -0.37684 
-0.458829 0.0157538 -0.376736 -0.478001 0.0269606 -0.377805 -0.47223 0.00792687 -0.373992 
-0.474649 0.0127233 -0.368017 -0.469083 0.0621044 -0.371257 -0.458497 -0.0123732 -0.367375 
-0.463166 -0.00658111 -0.366892 -0.458274 -0.00539595 -0.364525 -0.465571 -0.00518933 -0.356675 
-0.453227 -0.000321862 -0.354721 -0.450239 -0.0322283 -0.352446 -0.448976 -0.00284814 -0.349056 
-0.449545 0.016868 -0.348436 -0.468412 -0.0392329 -0.343131 -0.432202 -0.00574899 -0.338673 
-0.441029 -0.0105116 -0.335086 -0.447735 -0.00590166 -0.334078 -0.428406 0.00359276 -0.334347 
-0.41747 -0.0130544 -0.328232 -0.433067 -0.00354657 -0.329731 -0.427954 -0.00308811 -0.326876 
-0.426974 0.00336259 -0.325663 -0.437079 0.00729743 -0.327647 -0.40927 -0.0116241 -0.323618 
-0.424754 -0.00177579 -0.318035 -0.437678 0.0306302 -0.320004 -0.420088 0.0054519 -0.316589 
-0.42182 -0.0130498 -0.311115 -0.415008 -0.00382267 -0.310849 -0.421156 0.0121395 -0.311781 
-0.410093 -0.0161296 -0.307738 -0.413687 0.016564 -0.309489 -0.415198 -0.0126494 -0.304293 
-0.416263 -0.0086332 -0.304207 -0.409325 -0.00086304 -0.305815 -0.395061 -0.00339114 -0.305296 
-0.408037 0.0060312 -0.305526 -0.388953 -0.000437421 -0.300542 -0.402602 0.00924443 -0.301408 
-0.403998 -0.0104063 -0.29688 -0.402697 -0.0062883 -0.298312 -0.398662 0.0138406 -0.296951 
-0.412251 0.0338833 -0.296753 -0.393958 0.00332388 -0.293468 -0.396641 0.00566364 -0.295028 
-0.39322 -0.01318 -0.288863 -0.394285 -0.00231595 -0.288156 -0.389593 0.000564004 -0.290639 
-0.393168 -0.0243944 -0.283035 -0.383764 0.00508062 -0.281659 -0.386331 0.0115034 -0.282858 
-0.38553 0.0171228 -0.281654 -0.375141 -0.00962144 -0.278272 -0.379966 -0.0208179 -0.275768 
-0.375064 -0.00524631 -0.275545 -0.382263 0.0222216 -0.274926 -0.372238 -0.0146709 -0.270959 
-0.373494 -0.00380353 -0.271117 -0.370759 0.00621269 -0.268289 -0.360731 0.00431054 -0.266246 
-0.369892 -0.0211638 -0.265655 -0.365782 -0.0114108 -0.26447 -0.360826 0.013492 -0.262929 
-0.363383 0.0166941 -0.263603 -0.377819 -0.0341068 -0.261475 -0.366789 -0.0332834 -0.260959 
-0.362852 -0.0228256 -0.2607 -0.360911 -0.0140739 -0.260841 -0.359012 -0.00833592 -0.261366 
-0.354678 -0.00761406 -0.259368 -0.35247 -0.00334528 -0.258943 -0.359178 0.000728622 -0.261394 
-0.354305 0.00498569 -0.258574 -0.363745 -0.0311012 -0.257661 -0.344936 -0.00162139 -0.254738 
-0.344368 -0.0220425 -0.250737 -0.344818 -0.0146891 -0.254052 -0.34102 -0.0084971 -0.250924 
-0.345779 -0.00502004 -0.254488 -0.343582 -0.0042133 -0.252156 -0.342009 -0.00116787 -0.252202 
-0.346601 0.00385464 -0.253518 -0.341747 0.0121578 -0.251202 -0.349933 0.0294478 -0.25161 
-0.341239 -0.0208782 -0.248379 -0.340818 -0.00520992 -0.250084 -0.338992 -0.000845387 -0.250452 
-0.334399 -0.00268506 -0.249491 -0.33521 0.00164363 -0.247976 -0.335868 0.00656308 -0.248594 
-0.338602 0.00824097 -0.249678 -0.335448 0.00963129 -0.247545 -0.338708 0.0114811 -0.250988 
-0.340261 0.0146426 -0.249928 -0.343451 0.0201553 -0.250571 -0.340015 0.0206632 -0.248919 
-0.334495 -0.0247027 -0.244165 -0.336261 -0.0213702 -0.246535 -0.34699 -0.0209968 -0.246406 
-0.328862 -0.0110604 -0.244099 -0.328638 -0.00455902 -0.244215 -0.328477 -0.000122638 -0.24447 
-0.331177 0.00640075 -0.245739 -0.338252 0.0240529 -0.246434 -0.341937 0.0341391 -0.245248 
-0.352018 0.0430489 -0.246889 -0.326289 -0.0226011 -0.239907 -0.32232 -0.0221282 -0.239464 
-0.323523 -0.0145406 -0.241369 -0.32621 -0.00287346 -0.241924 -0.319828 1.8382e-06 -0.240717 
-0.322243 0.00206521 -0.241437 -0.318781 0.00725616 -0.240104 -0.325102 0.012841 -0.241354 
-0.333726 -0.037599 -0.23957 -0.319289 -0.0176835 -0.239109 -0.314955 -0.0172207 -0.237374 
-0.335477 -0.0144082 -0.238375 -0.314702 -0.00941651 -0.238365 -0.325841 -0.000627695 -0.236162 
-0.312045 0.00161679 -0.237622 -0.335104 0.0410268 -0.237071 -0.317737 -0.0329132 -0.234559 
-0.316662 -0.0130817 -0.235612 -0.311141 0.00970257 -0.235649 -0.311448 0.0138557 -0.235759 
-0.310719 0.0176565 -0.234372 -0.296536 -0.0108116 -0.230575 -0.296084 -0.00579652 -0.229698 
-0.300617 -0.000660646 -0.231789 -0.295903 0.00829106 -0.229278 -0.296831 0.0141053 -0.230367 
-0.305057 0.0168327 -0.23217 -0.311302 0.0351906 -0.229796 -0.309722 -0.0436372 -0.225812 
-0.300362 -0.0245413 -0.228656 -0.290223 -0.00706181 -0.227183 -0.289982 0.00518182 -0.227011 
-0.291375 0.00988112 -0.226025 -0.293646 0.0134783 -0.228025 -0.286689 0.0116991 -0.226286 
-0.292658 0.0294276 -0.225364 -0.307575 0.0375748 -0.227179 -0.289276 -0.0302766 -0.223661 
-0.281379 -0.0234617 -0.22228 -0.282358 -0.0176223 -0.223785 -0.283839 -0.0112268 -0.224103 
-0.280195 -0.00332422 -0.22308 -0.281677 2.83171e-05 -0.224901 -0.27944 0.0026763 -0.222726 
-0.275246 0.00755477 -0.221787 -0.277791 0.0119612 -0.222588 -0.280314 0.0139848 -0.223427 
-0.293851 0.0324133 -0.223624 -0.295914 0.0375393 -0.224044 -0.273785 -0.0175765 -0.220223 
-0.271242 -0.0133131 -0.219675 -0.270405 -0.00874313 -0.219821 -0.272227 -5.8946e-05 -0.220917 
-0.27422 0.00386039 -0.220489 -0.279426 -0.036624 -0.216575 -0.266538 -0.0107013 -0.216895 
-0.264081 -0.00660233 -0.217245 -0.262588 -0.000475708 -0.216855 -0.264657 0.00441355 -0.216417 
-0.269977 0.010429 -0.218347 -0.263584 0.0131965 -0.21645 -0.267495 0.0146691 -0.216799 
-0.270391 0.0206964 -0.218138 -0.259768 -0.00776332 -0.214285 -0.254889 -0.00859495 -0.212186 
-0.259655 0.00569685 -0.214229 -0.252063 0.00981708 -0.211952 -0.274776 0.0384088 -0.213929 
-0.276315 0.0412841 -0.214649 -0.261382 -0.0358268 -0.209486 -0.256484 -0.0326552 -0.209715 
-0.249876 -0.0112585 -0.210856 -0.24648 -0.00912617 -0.209678 -0.244866 -0.00475248 -0.208132 
-0.25006 -0.00125016 -0.210477 -0.24622 -8.62755e-05 -0.20988 -0.241424 0.00377958 -0.207709 
-0.245878 0.00835955 -0.20941 -0.24635 0.013789 -0.20912 -0.247279 0.0186901 -0.208795 
-0.251668 0.0290774 -0.208528 -0.256191 -0.041306 -0.206505 -0.245109 -0.0233292 -0.20607 
-0.236127 -0.010444 -0.205031 -0.232946 -0.00788155 -0.203913 -0.238095 -0.00509008 -0.206317 
-0.241057 -0.000658581 -0.206525 -0.237672 0.00583597 -0.206048 -0.233507 0.00379678 -0.204379 
-0.243595 0.0173735 -0.206344 -0.238724 0.0218695 -0.204781 -0.26434 0.0496648 -0.206257 
-0.251702 -0.0479437 -0.201838 -0.239191 -0.0245286 -0.203288 -0.232778 -0.023478 -0.201865 
-0.229371 -0.0111411 -0.202176 -0.225779 -0.00268366 -0.201255 -0.230627 0.00140392 -0.203228 
-0.230478 0.00631058 -0.203036 -0.231804 0.00944012 -0.203492 -0.227559 0.0141948 -0.201136 
-0.231901 0.0249306 -0.201355 -0.238976 0.0282872 -0.203485 -0.237435 0.0305207 -0.202216 
-0.242563 0.0381939 -0.202251 -0.244633 0.041038 -0.201979 -0.224682 -0.022336 -0.198214 
-0.224978 -0.0162302 -0.198757 -0.218259 -0.00828797 -0.197729 -0.222141 0.0121465 -0.198017 
-0.217638 0.0142324 -0.196932 -0.233505 0.0142037 -0.201468 -0.228422 0.0252414 -0.198733 
-0.223101 0.0247298 -0.197727 -0.222725 -0.0276231 -0.196804 -0.218188 -0.0187689 -0.195632 
-0.213429 -0.0171682 -0.194852 -0.222226 -0.0122008 -0.19718 -0.215942 -0.0111748 -0.196506 
-0.213232 -0.00948481 -0.195537 -0.208258 -0.00372432 -0.193781 -0.224267 -0.00291798 -0.195813 
-0.213054 0.000509813 -0.1947 -0.215124 0.00672334 -0.196591 -0.219087 0.0210249 -0.195631 
-0.217585 0.0263894 -0.19505 -0.252363 0.0312218 -0.197351 -0.221631 0.0295523 -0.195958 
-0.204368 -0.0161508 -0.191117 -0.21127 -0.0131514 -0.193257 -0.204126 -0.0107981 -0.191566 
-0.206656 -0.00700124 -0.19176 -0.203046 -6.34024e-05 -0.191584 -0.205093 -0.00242037 -0.192457 
-0.213261 0.0304393 -0.192276 -0.209529 0.0289214 -0.19099 -0.214924 0.0347216 -0.192002 
-0.206248 -0.0412716 -0.186398 -0.203896 -0.0282765 -0.188865 -0.198339 -0.0223834 -0.187846 
-0.200048 -0.0144533 -0.189509 -0.196346 -0.013425 -0.18803 -0.199258 -0.0112293 -0.18952 
-0.194585 -0.0104306 -0.18745 -0.196854 -0.00702656 -0.18783 -0.196753 -0.000643645 -0.188883 
-0.193351 -0.00265628 -0.187449 -0.198787 0.00351514 -0.188677 -0.199849 0.0114485 -0.189734 
-0.19199 0.0114992 -0.186416 -0.198585 0.017749 -0.187481 -0.198663 0.0224755 -0.187952 
-0.199277 -0.0421558 -0.183177 -0.197437 -0.0295348 -0.184367 -0.195672 -0.0252876 -0.186209 
-0.189801 -0.0186192 -0.184685 -0.192247 -0.0146823 -0.185077 -0.192881 -0.00728885 -0.184944 
-0.185996 -0.00908733 -0.184244 -0.191728 -0.00339718 -0.183853 -0.187325 0.000886775 -0.183878 
-0.18595 0.00517525 -0.184426 -0.190824 0.00870448 -0.186181 -0.187635 0.00847961 -0.184836 
-0.186034 0.0115553 -0.182775 -0.188698 0.025418 -0.183163 -0.186457 -0.0294799 -0.181393 
-0.18432 -0.0238046 -0.181806 -0.184138 -0.0168044 -0.181476 -0.193139 -0.0138961 -0.180196 
-0.182912 -0.0128398 -0.182197 -0.178435 -0.00583055 -0.180552 -0.181123 -0.00454905 -0.18223 
-0.179498 -0.00116897 -0.180311 -0.182824 0.00420131 -0.181897 -0.180902 0.0118544 -0.181712 
-0.175073 0.0130371 -0.179134 -0.186082 0.0165505 -0.182365 -0.180405 0.0205142 -0.180665 
-0.184651 0.0222761 -0.180995 -0.175702 -0.0284897 -0.175976 -0.168962 -0.0176488 -0.176248 
-0.175178 -0.0122661 -0.178331 -0.170296 -0.0133232 -0.176158 -0.179235 -0.00781343 -0.176551 
-0.171824 -0.00265278 -0.178383 -0.166032 0.00163756 -0.176019 -0.169073 0.0059357 -0.177204 
-0.173248 0.0203481 -0.17769 -0.175685 0.0258696 -0.176504 -0.17793 0.0304333 -0.176542 
-0.181372 -0.0396535 -0.175592 -0.161093 -0.021951 -0.172361 -0.165235 -0.018593 -0.174492 
-0.174605 -0.0180198 -0.176238 -0.162633 -0.0163077 -0.172005 -0.180458 -0.013363 -0.172941 
-0.164879 -0.00746055 -0.174327 -0.160427 -0.0102424 -0.173349 -0.169313 -0.00541257 -0.173615 
-0.166781 -0.00250566 -0.175232 -0.161178 -0.00280787 -0.172777 -0.168425 0.013315 -0.175236 
[...]
POINT_DATA 754
FIELD FieldData 7
id 1 754 int
256 341 317 6 60 23 58 11 13 
36 28 41 92 38 10 57 8 130 
40 79 101 48 126 54 67 4 42 
63 14 46 44 59 53 49 75 29 
76 83 93 88 43 104 162 20 122 
62 134 45 15 50 72 114 87 148 
18 100 85 163 70 51 71 181 132 
69 177 116 17 154 158 61 192 174 
37 81 147 52 120 166 47 84 64 
77 39 35 74 109 94 12 156 145 
65 133 91 138 96 55 167 157 25 
73 118 95 98 82 233 137 112 245 
200 111 188 150 222 124 146 176 110 
175 182 196 136 274 244 231 125 86 
103 187 304 143 139 159 89 66 270 
80 186 78 90 281 257 105 140 268 
203 128 127 234 227 113 198 216 232 
171 144 204 228 246 153 121 135 97 
327 201 194 224 170 209 202 165 191 
123 185 141 178 277 215 161 117 102 
164 259 238 265 230 287 211 218 152 
243 155 239 262 131 206 199 290 129 
119 302 252 282 180 260 151 271 183 
347 205 275 219 149 314 220 309 272 
300 278 210 223 258 295 214 208 279 
289 293 342 288 337 189 212 254 251 
250 172 372 190 236 318 184 292 299 
221 115 106 193 207 284 301 311 325 
320 286 315 249 107 169 225 217 308 
168 307 160 197 266 323 348 355 312 
313 229 235 346 344 240 345 310 333 
269 324 365 413 179 297 378 247 379 
280 305 261 322 267 213 242 381 321 
253 241 359 285 226 283 352 370 319 
255 237 373 425 303 338 316 358 376 
331 329 380 389 264 332 350 405 403 
328 248 374 335 391 273 349 330 291 
326 367 384 354 411 173 392 294 336 
393 371 296 396 386 394 415 306 395 
334 414 406 441 388 402 377 429 276 
298 400 362 432 409 428 382 447 442 
339 407 369 383 356 404 385 430 448 
426 457 423 419 401 463 398 360 437 
351 343 438 387 375 458 424 399 357 
439 397 446 410 452 468 408 472 412 
364 340 427 480 500 390 475 417 418 
434 460 363 504 479 492 473 513 440 
469 490 478 431 421 464 422 433 535 
455 443 368 465 466 450 471 453 416 
353 195 476 482 512 470 481 435 483 
533 525 523 484 361 514 467 420 366 
491 445 495 474 528 566 494 507 502 
558 509 496 461 459 449 477 489 532 
487 498 527 454 444 503 537 436 486 
493 511 505 488 497 563 510 559 524 
542 584 573 517 541 506 548 520 519 
577 508 518 777 589 765 767 576 521 
540 534 770 526 572 499 568 501 522 
529 515 565 594 539 485 552 462 599 
570 609 530 562 547 536 516 543 586 
554 451 531 618 544 545 569 602 619 
546 603 575 578 611 614 596 623 581 
588 597 616 587 538 582 585 549 635 
579 615 604 628 634 622 613 551 556 
555 550 595 592 574 590 600 605 632 
610 580 591 606 627 621 620 612 561 
607 629 601 626 567 617 571 608 630 
557 583 564 625 624 598 593 633 631 
263 637 645 553 644 642 641 560 639 
638 647 456 648 636 643 655 646 658 
654 640 660 656 650 653 659 649 651 
652 657 661 672 663 667 674 670 665 
671 673 669 664 679 666 668 662 682 
680 685 687 676 686 681 683 678 675 
684 697 677 698 693 691 689 695 688 
700 694 690 699 710 696 705 692 706 
708 712 702 713 711 709 707 703 701 
704 716 720 717 719 722 725 723 721 
715 718 724 714 730 726 735 728 738 
734 732 727 729 736 737 731 739 733 
744 750 749 752 745 741 742 743 746 
747 740 751 748 758 755 763 761 756 
764 757 759 754 762 760 776 753 769 
772 768 775 773 774 766 771 
type 1 754 int
1 1 1 1 1 1 1 1 1 
1 1 1 1 1 1 1 1 1 
1 1 1 1 1 1 1 1 1 
1 1 1 1 1 1 1 1 1 
1 1 1 1 1 1 1 1 1 
1 1 1 1 1 1 1 1 1 
1 1 1 1 1 1 1 1 1 
1 1 1 1 1 1 1 1 1 
1 1 1 1 1 1 1 1 1 
1 1 1 1 1 1 1 1 1 
1 1 1 1 1 1 1 1 1 
1 1 1 1 1 1 1 1 1 
1 1 1 1 1 1 1 1 1 
1 1 1 1 1 1 1 1 1 
1 1 1 1 1 1 1 1 1 
1 1 1 1 1 1 1 1 1 
1 1 1 1 1 1 1 1 1 
1 1 1 1 1 1 1 1 1 
1 1 1 1 1 1 1 1 1 
1 1 1 1 1 1 1 1 1 
1 1 1 1 1 1 1 1 1 
1 1 1 1 1 1 1 1 1 
1 1 1 1 1 1 1 1 1 
1 1 1 1 1 1 1 1 1 
1 1 1 1 1 1 1 1 1 
1 1 1 1 1 1 1 1 1 
1 1 1 1 1 1 1 1 1 
1 1 1 1 1 1 1 1 1 
1 1 1 1 1 1 1 1 1 
1 1 1 1 1 1 1 1 1 
1 1 1 1 1 1 1 1 1 
1 1 1 1 1 1 1 1 1 
1 1 1 1 1 1 1 1 1 
1 1 1 1 1 1 1 1 1 
1 1 1 1 1 1 1 1 1 
1 1 1 1 1 1 1 1 1 
1 1 1 1 1 1 1 1 1 
1 1 1 1 1 1 1 1 1 
1 1 1 1 1 1 1 1 1 
1 1 1 1 1 1 1 1 1 
1 1 1 1 1 1 1 1 1 
1 1 1 1 1 1 1 1 1 
1 1 1 1 1 1 1 1 1 
1 1 1 1 1 1 1 1 1 
1 1 1 1 1 1 1 1 1 
1 1 1 1 1 1 1 1 1 
1 1 1 1 1 1 1 1 1 
1 1 1 1 1 1 1 1 1 
1 1 1 1 1 1 1 1 1 
1 1 1 1 1 1 1 1 1 
1 1 1 1 1 1 1 1 1 
1 1 1 1 1 1 1 1 1 
1 1 1 1 1 1 1 1 1 
1 1 1 1 1 1 1 1 1 
1 1 1 1 1 1 1 1 1 
1 1 1 1 1 1 1 1 1 
1 1 1 1 1 1 1 1 1 
1 1 1 1 1 1 1 1 1 
1 1 1 1 1 1 1 1 1 
1 1 1 1 1 1 1 1 1 
1 1 1 1 1 1 1 1 1 
1 1 1 1 1 1 1 1 1 
1 1 1 1 1 1 1 1 1 
1 1 1 1 1 1 1 1 1 
1 1 1 1 1 1 1 1 1 
1 1 1 1 1 1 1 1 1 
1 1 1 1 1 1 1 1 1 
1 1 1 1 1 1 1 1 1 
1 1 1 1 1 1 1 1 1 
1 1 1 1 1 1 1 1 1 
1 1 1 1 1 1 1 1 1 
1 1 1 1 1 1 1 1 1 
1 1 1 1 1 1 1 1 1 
1 1 1 1 1 1 1 1 1 
1 1 1 1 1 1 1 1 1 
1 1 1 1 1 1 1 1 1 
1 1 1 1 1 1 1 1 1 
1 1 1 1 1 1 1 1 1 
1 1 1 1 1 1 1 1 1 
1 1 1 1 1 1 1 1 1 
1 1 1 1 1 1 1 1 1 
1 1 1 1 1 1 1 1 1 
1 1 1 1 1 1 1 1 1 
1 1 1 1 1 1 1 
i 3 754 int
0 0 0 0 0 0 0 0 0 
0 0 0 0 0 0 0 0 0 
0 0 0 0 0 0 0 0 0 
0 0 0 0 0 0 0 0 0 
0 0 0 0 0 0 0 0 0 
0 0 0 0 0 0 0 0 0 
0 0 0 0 0 0 0 0 0 
0 0 0 0 0 0 0 0 0 
0 0 0 0 0 0 0 0 0 
0 0 0 0 0 0 0 0 0 
0 0 0 0 0 0 0 0 0 
0 0 0 0 0 0 0 0 0 
0 0 0 0 0 0 0 0 0 
0 0 0 0 0 0 0 0 0 
0 0 0 0 0 0 0 0 0 
0 0 0 0 0 0 0 0 0 
0 0 0 0 0 0 0 0 0 
0 0 0 0 0 0 0 0 0 
0 0 0 0 0 0 0 0 0 
0 0 0 0 0 0 0 0 0 
0 0 0 0 0 0 0 0 0 
0 0 0 0 0 0 0 0 0 
0 0 0 0 0 0 0 0 0 
0 0 0 0 0 0 0 0 0 
0 0 0 0 0 0 0 0 0 
0 0 0 0 0 0 0 0 0 
0 0 0 0 0 0 0 0 0 
0 0 0 0 0 0 0 0 0 
0 0 0 0 0 0 0 0 0 
0 0 0 0 0 0 0 0 0 
0 0 0 0 0 0 0 0 0 
0 0 0 0 0 0 0 0 0 
0 0 0 0 0 0 0 0 0 
0 0 0 0 0 0 0 0 0 
0 0 0 0 0 0 0 0 0 
0 0 0 0 0 0 0 0 0 
0 0 0 0 0 0 0 0 0 
0 0 0 0 0 0 0 0 0 
0 0 0 0 0 0 0 0 0 
0 0 0 0 0 0 0 0 0 
0 0 0 0 0 0 0 0 0 
0 0 0 0 0 0 0 0 0 
0 0 0 0 0 0 0 0 0 
0 0 0 0 0 0 0 0 0 
0 0 0 0 0 0 0 0 0 
0 0 0 0 0 0 0 0 0 
0 0 0 0 0 0 0 0 0 
0 0 0 0 0 0 0 0 0 
0 0 0 0 0 0 0 0 0 
0 0 0 0 0 0 0 0 0 
0 0 0 0 0 0 0 0 0 
0 0 0 0 0 0 0 0 0 
0 0 0 0 0 0 0 0 0 
0 0 0 0 0 0 0 0 0 
0 0 0 0 0 0 0 0 0 
0 0 0 0 0 0 0 0 0 
0 0 0 0 0 0 0 0 0 
0 0 0 0 0 0 0 0 0 
0 0 0 0 0 0 0 0 0 
0 0 0 0 0 0 0 0 0 
0 0 0 0 0 0 0 0 0 
0 0 0 0 0 0 0 0 0 
0 0 0 0 0 0 0 0 0 
0 0 0 0 0 0 0 0 0 
0 0 0 0 0 0 0 0 0 
0 0 0 0 0 0 0 0 0 
0 0 0 0 0 0 0 0 0 
0 0 0 0 0 0 0 0 0 
0 0 0 0 0 0 0 0 0 
0 0 0 0 0 0 0 0 0 
0 0 0 0 0 0 0 0 0 
0 0 0 0 0 0 0 0 0 
0 0 0 0 0 0 0 0 0 
0 0 0 0 0 0 0 0 0 
0 0 0 0 0 0 0 0 0 
0 0 0 0 0 0 0 0 0 
0 0 0 0 0 0 0 0 0 
0 0 0 0 0 0 0 0 0 
0 0 0 0 0 0 0 0 0 
0 0 0 0 0 0 0 0 0 
0 0 0 0 0 0 0 0 0 
0 0 0 0 0 0 0 0 0 
0 0 0 0 0 0 0 0 0 
0 0 0 0 0 0 0 0 0 
0 0 0 0 0 0 0 0 0 
0 0 0 0 0 0 0 0 0 
0 0 0 0 0 0 0 0 0 
0 0 0 0 0 0 0 0 0 
0 0 0 0 0 0 0 0 0 
0 0 0 0 0 0 0 0 0 
0 0 0 0 0 0 0 0 0 
0 0 0 0 0 0 0 0 0 
0 0 0 0 0 0 0 0 0 
0 0 0 0 0 0 0 0 0 
0 0 0 0 0 0 0 0 0 
0 0 0 0 0 0 0 0 0 
0 0 0 0 0 0 0 0 0 
0 0 0 0 0 0 0 0 0 
0 0 0 0 0 0 0 0 0 
0 0 0 0 0 0 0 0 0 
0 0 0 0 0 0 0 0 0 
0 0 0 0 0 0 0 0 0 
0 0 0 0 0 0 0 0 0 
0 0 0 0 0 0 0 0 0 
0 0 0 0 0 0 0 0 0 
0 0 0 0 0 0 0 0 0 
0 0 0 0 0 0 0 0 0 
0 0 0 0 0 0 0 0 0 
0 0 0 0 0 0 0 0 0 
0 0 0 0 0 0 0 0 0 
0 0 0 0 0 0 0 0 0 
0 0 0 0 0 0 0 0 0 
0 0 0 0 0 0 0 0 0 
0 0 0 0 0 0 0 0 0 
0 0 0 0 0 0 0 0 0 
0 0 0 0 0 0 0 0 0 
0 0 0 0 0 0 0 0 0 
0 0 0 0 0 0 0 0 0 
0 0 0 0 0 0 0 0 0 
0 0 0 0 0 0 0 0 0 
0 0 0 0 0 0 0 0 0 
0 0 0 0 0 0 0 0 0 
0 0 0 0 0 0 0 0 0 
0 0 0 0 0 0 0 0 0 
0 0 0 0 0 0 0 0 0 
0 0 0 0 0 0 0 0 0 
0 0 0 0 0 0 0 0 0 
0 0 0 0 0 0 0 0 0 
0 0 0 0 0 0 0 0 0 
0 0 0 0 0 0 0 0 0 
0 0 0 0 0 0 0 0 0 
0 0 0 0 0 0 0 0 0 
0 0 0 0 0 0 0 0 0 
0 0 0 0 0 0 0 0 0 
0 0 0 0 0 0 0 0 0 
0 0 0 0 0 0 0 0 0 
0 0 0 0 0 0 0 0 0 
0 0 0 0 0 0 0 0 0 
0 0 0 0 0 0 0 0 0 
0 0 0 0 0 0 0 0 0 
0 0 0 0 0 0 0 0 0 
0 0 0 0 0 0 0 0 0 
0 0 0 0 0 0 0 0 0 
0 0 0 0 0 0 0 0 0 
0 0 0 0 0 0 0 0 0 
0 0 0 0 0 0 0 0 0 
0 0 0 0 0 0 0 0 0 
0 0 0 0 0 0 0 0 0 
0 0 0 0 0 0 0 0 0 
0 0 0 0 0 0 0 0 0 
0 0 0 0 0 0 0 0 0 
0 0 0 0 0 0 0 0 0 
0 0 0 0 0 0 0 0 0 
0 0 0 0 0 0 0 0 0 
0 0 0 0 0 0 0 0 0 
0 0 0 0 0 0 0 0 0 
0 0 0 0 0 0 0 0 0 
0 0 0 0 0 0 0 0 0 
0 0 0 0 0 0 0 0 0 
0 0 0 0 0 0 0 0 0 
0 0 0 0 0 0 0 0 0 
0 0 0 0 0 0 0 0 0 
0 0 0 0 0 0 0 0 0 
0 0 0 0 0 0 0 0 0 
0 0 0 0 0 0 0 0 0 
0 0 0 0 0 0 0 0 0 
0 0 0 0 0 0 0 0 0 
0 0 0 0 0 0 0 0 0 
0 0 0 0 0 0 0 0 0 
0 0 0 0 0 0 0 0 0 
0 0 0 0 0 0 0 0 0 
0 0 0 0 0 0 0 0 0 
0 0 0 0 0 0 0 0 0 
0 0 0 0 0 0 0 0 0 
0 0 0 0 0 0 0 0 0 
0 0 0 0 0 0 0 0 0 
0 0 0 0 0 0 0 0 0 
0 0 0 0 0 0 0 0 0 
0 0 0 0 0 0 0 0 0 
0 0 0 0 0 0 0 0 0 
0 0 0 0 0 0 0 0 0 
0 0 0 0 0 0 0 0 0 
0 0 0 0 0 0 0 0 0 
0 0 0 0 0 0 0 0 0 
0 0 0 0 0 0 0 0 0 
0 0 0 0 0 0 0 0 0 
0 0 0 0 0 0 0 0 0 
0 0 0 0 0 0 0 0 0 
0 0 0 0 0 0 0 0 0 
0 0 0 0 0 0 0 0 0 
0 0 0 0 0 0 0 0 0 
0 0 0 0 0 0 0 0 0 
0 0 0 0 0 0 0 0 0 
0 0 0 0 0 0 0 0 0 
0 0 0 0 0 0 0 0 0 
0 0 0 0 0 0 0 0 0 
0 0 0 0 0 0 0 0 0 
0 0 0 0 0 0 0 0 0 
0 0 0 0 0 0 0 0 0 
0 0 0 0 0 0 0 0 0 
0 0 0 0 0 0 0 0 0 
0 0 0 0 0 0 0 0 0 
0 0 0 0 0 0 0 0 0 
0 0 0 0 0 0 0 0 0 
0 0 0 0 0 0 0 0 0 
0 0 0 0 0 0 0 0 0 
0 0 0 0 0 0 0 0 0 
0 0 0 0 0 0 0 0 0 
0 0 0 0 0 0 0 0 0 
0 0 0 0 0 0 0 0 0 
0 0 0 0 0 0 0 0 0 
0 0 0 0 0 0 0 0 0 
0 0 0 0 0 0 0 0 0 
0 0 0 0 0 0 0 0 0 
0 0 0 0 0 0 0 0 0 
0 0 0 0 0 0 0 0 0 
0 0 0 0 0 0 0 0 0 
0 0 0 0 0 0 0 0 0 
0 0 0 0 0 0 0 0 0 
0 0 0 0 0 0 0 0 0 
0 0 0 0 0 0 0 0 0 
0 0 0 0 0 0 0 0 0 
0 0 0 0 0 0 0 0 0 
0 0 0 0 0 0 0 0 0 
0 0 0 0 0 0 0 0 0 
0 0 0 0 0 0 0 0 0 
0 0 0 0 0 0 0 0 0 
0 0 0 0 0 0 0 0 0 
0 0 0 0 0 0 0 0 0 
0 0 0 0 0 0 0 0 0 
0 0 0 0 0 0 0 0 0 
0 0 0 0 0 0 0 0 0 
0 0 0 0 0 0 0 0 0 
0 0 0 0 0 0 0 0 0 
0 0 0 0 0 0 0 0 0 
0 0 0 0 0 0 0 0 0 
0 0 0 0 0 0 0 0 0 
0 0 0 0 0 0 0 0 0 
0 0 0 0 0 0 0 0 0 
0 0 0 0 0 0 0 0 0 
0 0 0 0 0 0 0 0 0 
0 0 0 0 0 0 0 0 0 
0 0 0 0 0 0 0 0 0 
0 0 0 0 0 0 0 0 0 
0 0 0 0 0 0 0 0 0 
0 0 0 0 0 0 0 0 0 
0 0 0 0 0 0 0 0 0 
0 0 0 0 0 0 0 0 0 
0 0 0 0 0 0 0 0 0 
0 0 0 0 0 0 0 0 0 
0 0 0 0 0 0 0 0 0 
0 0 0 
v 3 754 double
-0.888315 -0.0615035 -0.373223 -0.874535 -0.0669522 -0.956691 -0.795823 -0.041667 -0.342732 
-1.17123 0.0260053 -1.8085 -1.17479 0.0230187 -1.79509 -1.20375 0.00503665 -1.74707 
-1.28551 0.102613 -1.83036 -1.22067 0.0285474 -1.73514 -1.21196 0.0390049 -1.70543 
-1.08435 0.0642844 -1.69117 -1.2302 0.00574051 -1.72973 -1.24643 -0.117866 -1.71771 
-1.34796 0.269572 -1.69402 -1.0323 0.152826 -1.67498 -1.116 0.019221 -1.63519 
-1.22662 -0.116708 -1.65417 -1.22068 -0.298572 -1.68201 -1.37075 -0.249623 -1.64257 
-1.19979 -0.0555813 -1.58107 -1.10241 -0.0910185 -1.55146 -1.20344 -0.0768672 -1.54638 
-1.19319 -0.0892842 -1.55369 -1.19839 0.239857 -1.69071 -1.08092 -0.0613343 -1.46004 
-1.27485 0.17461 -1.50736 -1.31844 0.0999611 -1.45906 -1.07951 0.0100131 -1.42284 
-0.973525 -0.054984 -1.3775 -1.20031 -0.116061 -1.41951 -1.1745 -0.054974 -1.38553 
-1.16531 -0.100774 -1.38023 -1.277 -0.273313 -1.45261 -0.950694 -0.0282768 -1.35961 
-1.21623 0.0824053 -1.32183 -1.27791 -0.159827 -1.42894 -1.16483 0.0470791 -1.31376 
-1.22816 0.208558 -1.32151 -1.13593 0.0982091 -1.25272 -1.11646 -0.190801 -1.27226 
-1.00125 -0.056749 -1.21148 -1.14832 -0.0493155 -1.26657 -1.23274 0.169146 -1.24897 
-1.14703 0.278463 -1.32916 -1.15392 0.253472 -1.2443 -0.927985 -0.0893705 -1.19775 
-1.16496 0.313566 -1.24575 -0.916792 0.00792413 -1.19662 -1.0702 0.0723754 -1.15978 
-1.16235 0.0278991 -1.15128 -1.14927 0.0317068 -1.15516 -1.0697 -0.178245 -1.16909 
-1.25689 0.0342867 -1.21449 -1.06247 -0.0318213 -1.06591 -1.14264 -0.0465569 -1.174 
-1.1263 -0.0230756 -1.06444 -1.06719 -0.01735 -0.986789 -1.05461 -0.0269159 -1.07676 
-1.2255 0.338249 -1.17348 -1.15631 -0.04943 -1.01514 -1.13458 0.0303929 -1.03019 
-1.15352 0.0596096 -1.00956 -1.06918 0.00527484 -0.997526 -1.08618 -0.129173 -0.914638 
-1.10517 0.0370108 -0.956228 -1.21306 -0.0523629 -0.993168 -1.04079 0.00651297 -0.885958 
-1.13677 0.0257101 -0.89534 -1.25934 -0.101095 -0.91558 -1.08849 -0.0675976 -0.871571 
-1.18328 0.102491 -0.86355 -1.08167 -0.0200369 -0.798236 -1.15856 0.079826 -0.81174 
-1.17128 -0.0833829 -0.847043 -1.31752 0.207942 -0.898437 -1.08577 0.104779 -0.920028 
-1.08858 -0.00313056 -0.785385 -1.26404 0.214881 -0.840475 -1.05827 0.0730597 -0.778122 
-1.04712 0.0604206 -0.731257 -0.961548 0.0916634 -0.70504 -1.09304 0.0583722 -0.773398 
-1.07089 0.0764774 -0.741625 -1.08279 0.0902998 -0.772516 -0.899299 0.142856 -0.667809 
-0.951131 -0.0228196 -0.594819 -0.973134 0.0703171 -0.704081 -0.941809 0.177325 -0.58259 
-1.01904 0.0990585 -0.670432 -1.0324 0.0783191 -0.606936 -1.06497 -0.0660034 -0.639608 
-1.06973 -0.0390535 -0.677374 -1.04446 -0.0227815 -0.625906 -0.890193 -0.0398723 -0.656805 
-1.22374 -0.113084 -0.614894 -1.02105 0.0716794 -0.545881 -1.05117 -0.145878 -0.612976 
-1.0019 0.075526 -0.809124 -1.21061 0.144439 -0.609509 -1.02012 -0.0691582 -0.593336 
-1.02561 -0.0353521 -0.59315 -1.01956 -0.059453 -0.541224 -1.02523 -0.021201 -0.68579 
-1.01979 -0.0331081 -0.605534 -1.05417 0.0584524 -0.622676 -0.886289 -0.129696 -0.58326 
-1.07018 0.1249 -0.590338 -1.071 0.176431 -0.680768 -1.08383 -0.051568 -0.542855 
-1.10644 0.0822318 -0.502155 -0.974827 0.0231995 -0.421354 -1.12355 0.027498 -0.497995 
-1.08484 -0.0586101 -0.54463 -1.25073 -0.116309 -0.663129 -1.12835 -0.419055 -0.796727 
-0.988256 0.109287 -0.58399 -0.940761 0.13536 -0.437249 -1.01223 -0.0203944 -0.395269 
-0.9273 0.0533049 -0.396698 -1.00178 0.126971 -0.27962 -0.791703 -0.0638444 -0.15422 
-0.751994 0.318208 -0.346222 -1.18695 -0.0879007 -0.506008 -1.19212 0.14309 -0.515798 
-1.23671 0.0350299 -0.619567 -0.884894 0.0206976 -0.363299 -0.936191 0.137443 -0.437249 
-1.06646 0.310137 -0.464583 -0.767152 0.244782 -0.389967 -1.40563 -0.245875 0.182925 
-1.06853 -0.0290242 -0.45181 -1.12203 -0.151544 -0.587498 -1.22084 0.131642 -0.498122 
-0.969406 0.109652 -0.475054 -1.14362 -0.0992827 -0.488224 -1.16297 -0.0816357 -0.648843 
-1.19065 -0.0930198 -0.514793 -1.04551 0.0474966 -0.444284 -1.06551 0.00888419 -0.449586 
-1.06476 0.0416045 -0.451208 -1.00803 0.208918 -0.414057 -0.94091 0.125394 -0.368114 
-1.16439 -0.0471851 -0.49488 -1.13184 -0.220176 -0.498502 -1.25658 0.0185981 -0.45897 
-1.08668 -0.0679886 -0.413329 -1.04268 -0.0347946 -0.43837 -1.08657 -0.0562435 -0.46262 
-0.881651 0.13332 -0.480244 -0.929154 0.0365501 -0.392969 -1.07932 -0.230443 -0.473543 
-0.923909 -0.0383594 -0.398975 -1.06902 -0.280969 -0.421582 -1.06627 0.00470987 -0.412121 
-1.08128 -0.105315 -0.430895 -0.922864 -0.0638041 -0.3734 -0.97768 -0.0237406 -0.40877 
-1.03646 0.0536665 -0.439288 -0.895097 0.0144203 -0.378365 -0.960728 -0.0115095 -0.407554 
-0.946266 0.0526129 -0.387768 -0.995279 -0.0335734 -0.412776 -1.00315 -0.0384871 -0.436245 
-0.994841 0.0624406 -0.530911 -1.18745 -0.528937 -0.625178 -1.0653 -0.0538325 -0.431486 
-0.915563 0.0157391 -0.388739 -0.952661 0.101627 -0.409423 -0.705885 0.0189832 -0.296999 
-0.979667 0.0276558 -0.414805 -1.04655 0.152081 -0.480967 -1.0681 -0.0183053 -0.444304 
-0.912522 -0.00216084 -0.381347 -0.912069 -0.0334093 -0.387124 -0.943787 -0.048634 -0.398002 
-1.04047 -0.0221903 -0.436624 -0.989953 0.0426668 -0.41268 -0.996647 -0.0430075 -0.428082 
-1.01308 -0.108017 -0.432602 -0.975932 -0.0373562 -0.41171 -0.96647 -0.0839688 -0.405614 
-0.969906 0.00302607 -0.412414 -0.821198 0.0369463 -0.341159 -0.957069 -0.303673 -0.623901 
-0.947083 -0.301064 -0.512963 -1.01421 0.15627 -0.491655 -0.922377 0.153675 -0.382881 
-0.961694 -0.0567076 -0.392754 -0.94077 0.0152971 -0.400638 -1.00628 0.0188503 -0.421759 
-0.735654 -0.0312983 -0.3147 -0.740569 -0.00474456 -0.308816 -0.79896 0.0194542 -0.32752 
-0.801728 -0.0154262 -0.336167 -1.00365 -0.0472884 -0.431723 -0.980253 -0.0270392 -0.418301 
-1.01149 -0.19996 -0.478945 -0.961874 0.0348349 -0.376834 -0.934236 0.170867 -0.386364 
-0.798208 -0.0646564 -0.330188 -0.831495 -0.109894 -0.336537 -0.930724 0.0591342 -0.422808 
-0.950097 -0.106882 -0.439058 -0.709933 0.0164243 -0.295308 -0.912937 -0.074676 -0.383983 
-1.03051 0.0848604 -0.41395 -0.857569 -0.0830739 -0.366435 -0.913102 -0.266519 -0.508856 
-1.22717 0.138782 -0.551312 -1.01791 0.00307153 -0.463929 -1.02174 -0.010314 -0.416018 
-0.758289 0.0091954 -0.312979 -0.881813 0.0246198 -0.377277 -0.954347 -0.0922461 -0.410887 
-0.873508 -0.0164683 -0.359937 -0.767419 0.060263 -0.293473 -0.849058 0.195629 -0.325582 
-0.863144 0.0933188 -0.473285 -1.02516 -0.066833 -0.42188 -1.01261 -0.0705528 -0.36357 
-1.06191 -0.00648504 -0.433277 -1.06509 0.0185982 -0.430968 -0.810016 -0.0497481 -0.301514 
-0.860136 -0.036197 -0.362174 -0.844096 0.060201 -0.355299 -0.839763 -0.0304977 -0.362239 
-0.822189 0.0575999 -0.342465 -1.04962 -0.0645066 -0.816892 -0.857591 -0.0314848 -0.368539 
-0.805292 0.0278389 -0.329559 -0.995395 -0.205464 -0.386898 -0.844412 -0.033852 -0.357919 
-0.803481 0.0104047 -0.345266 -0.785193 0.0407083 -0.561757 -0.886576 0.0682978 -0.373534 
-0.87436 0.060649 -0.368297 -0.771349 -0.0190145 -0.320397 -1.18726 0.0556993 -0.84557 
-0.822629 -0.0134262 -0.351428 -0.817533 0.0988501 -0.33358 -0.759145 0.000187143 -0.313789 
-0.903756 -0.0117394 -0.384728 -1.05368 0.0855229 -0.74482 -1.0158 -0.00888309 -0.416284 
-0.859481 0.0016881 -0.354892 -0.889757 0.0225806 -0.379533 -0.767456 0.0249533 -0.324673 
-0.89673 0.00762678 -0.439619 -0.736116 0.104652 -0.315804 -0.745437 0.0811729 -0.318393 
-0.832557 -0.147756 -0.398303 -0.901899 -0.0231005 -0.381287 -0.922282 -0.0670665 -0.390175 
-0.920764 -0.0501708 -0.362736 -0.856009 -0.0635714 -0.33333 -0.79522 0.0133705 -0.342021 
-0.80208 -0.00703594 -0.327822 -0.959042 0.158203 -0.472337 -0.882881 0.0401053 -0.369141 
-0.802854 0.0329455 -0.285698 -0.891307 0.0220944 -0.383591 -0.732919 -0.0421592 -0.315953 
-0.912131 0.0613225 -0.379536 -0.655721 0.00733754 -0.282826 -0.792637 -0.0297385 -0.331077 
-0.795338 -0.00560503 -0.340849 -0.805843 0.0392926 -0.329553 -0.8727 -0.145713 -0.400777 
-1.01168 -0.0107939 -0.412858 -1.02241 0.0228784 -0.447971 -0.832626 0.0813419 -0.352339 
-0.834682 0.0174203 -0.346704 -0.894027 0.0182993 -0.371309 -0.848396 -0.0211573 -0.379959 
-0.847191 -0.0169287 -0.361804 -0.924831 0.0403032 -0.431199 -0.792767 0.012147 -0.340353 
-0.726436 0.0322401 -0.299525 -0.792923 -0.00507463 -0.339764 -0.766362 0.00327658 -0.338319 
-0.755498 0.00770017 -0.329141 -0.886627 -0.0497596 -0.377395 -0.864313 -0.0431929 -0.35386 
-0.881926 -0.0393387 -0.358413 -0.846465 0.0119083 -0.353249 -1.09777 -0.181021 -0.424738 
-0.722716 0.0781293 -0.284396 -0.784704 0.0070791 -0.326003 -0.804515 -0.128414 -0.337646 
-0.846884 -0.0834998 -0.361583 -0.734549 -0.0740356 -0.305934 -0.728779 -0.00533578 -0.306186 
-0.717768 0.0560138 -0.300457 -0.757965 0.0124998 -0.314999 -0.928228 -0.111523 -0.413611 
-0.782427 -0.0234653 -0.334121 -0.792414 -0.20744 -0.294776 -0.800141 -0.0415632 -0.308166 
-0.753696 -0.0177746 -0.320542 -0.723328 0.0490733 -0.325236 -0.939888 -0.123543 -0.213174 
-0.705566 0.00960465 -0.290565 -0.717547 -0.038386 -0.310561 -0.901862 0.0569964 -0.356569 
-0.804335 -0.0107265 -0.341051 -0.862686 -0.0411527 -0.414943 -0.937985 -0.0639238 -0.399555 
-0.832371 0.235801 -0.408147 -0.756163 -0.0205126 -0.317851 -0.761183 -0.0428764 -0.327598 
-1.14186 -0.406413 -0.839108 -0.806617 0.0824441 -0.284615 -1.07075 -0.106714 -0.312481 
-0.736302 -0.0215402 -0.321485 -0.604495 0.0405931 -0.253822 -0.850411 -0.0343788 -0.481737 
-0.71106 0.0103091 -0.288575 -0.693148 -0.040468 -0.206935 -0.868551 0.0633346 -0.357684 
-0.84924 0.0718321 -0.348187 -0.859341 0.0707135 -0.352877 -0.790126 0.0168068 -0.329678 
-0.896975 0.00842151 -0.368858 -0.872705 0.0120878 -0.358781 -0.962477 0.028709 -0.407501 
-0.717301 0.0066267 -0.224541 -0.663164 -0.0628017 -0.373527 -0.713975 0.0134862 -0.305917 
-0.631598 -0.115088 -0.255254 -1.03779 -0.137453 -0.356711 -0.451859 -0.00806722 -0.175248 
-0.507228 -0.0466247 -0.213017 -0.776806 0.0059449 -0.533258 -0.656117 -0.0262035 -0.261354 
-0.711879 0.132856 -0.305225 -0.764102 0.014919 -0.322734 -0.905459 -0.0640102 -0.598751 
-0.923725 -0.145255 -0.394833 -0.896877 -0.0919443 -0.348762 -0.747124 -0.0806962 -0.331482 
-0.694842 -0.00640675 -0.28802 -0.756205 -0.0674917 -0.326676 -0.857169 -0.0602892 -0.353389 
-0.761937 -0.123909 -0.150819 -0.642282 -0.00976637 -0.266183 -0.702967 -0.103185 -0.28713 
-1.07572 0.013156 0.0560931 -0.673029 -0.0955928 -0.402276 -0.62754 0.0126299 -0.269026 
-0.551635 -0.0137149 -0.235885 -0.784361 0.112596 -0.441739 -0.698278 0.0438054 -0.297256 
-0.784685 -0.0190356 -0.322894 -0.643794 0.0224933 -0.240408 -0.943176 0.0770679 -0.388907 