/*--------------------------------*- C++ -*----------------------------------*\
| =========                 |                                                 |
| \\      /  F ield         | OpenFOAM: The Open Source CFD Toolbox           |
|  \\    /   O peration     | Version:  5.x                                   |
|   \\  /    A nd           | Web:      www.OpenFOAM.org                      |
|    \\/     M anipulation  |                                                 |
\*---------------------------------------------------------------------------*/
FoamFile
{
    version     2.0;
    format      ascii;
    class       volScalarField;
    location    "0.15";
    object      alpha.water;
}
// * * * * * * * * * * * * * * * * * * * * * * * * * * * * * * * * * * * * * //

dimensions      [0 0 0 0 0 0 0];

internalField   nonuniform List<scalar> 
2268
(
1
1
1
1
1
1
1
1
1
1
1
1
1
1
1
1
1
1
1
0.999265
0.999278
1
0.639162
0.999999
1
1
1
1
1
1
1
1
1
1
1
1
1
1
1
0.999999
0.999999
1
0.99966
0.99973
0.99998
0.701385
1
1
1
1
1
1
1
1
1
1
1
1
1
1
1
1
1
1
1
1
0.999816
0.999955
0.747666
1
1
1
1
1
1
1
1
1
1
1
1
1
1
1
1
1
1
1
0.999999
0.999729
0.999943
0.866164
1
1
1
1
1
1
1
1
1
1
1
1
1
1
1
1
1
1
1
1
0.999819
0.999902
0.99826
1
1
1
1
1
1
1
1
1
1
1
1
1
1
1
1
1
1
1
0.999419
0.999796
0.999893
1
1
1
1
1
1
1
1
1
1
1
1
1
1
1
1
1
1
1
1
0.988823
0.998141
0.999913
0.998766
1
1
1
1
1
1
1
1
1
1
1
1
1
1
1
1
0.999998
0.999986
0.999982
0.938873
0.829661
0.977118
0.998607
1.04299e-19
1.19415e-19
5.80156e-20
6.35328e-21
1.35186e-22
1.75662e-24
6.14972e-26
2.75469e-27
9.7848e-29
2.8671e-30
7.40588e-32
1.66211e-33
3.15354e-35
4.94445e-37
6.19818e-39
5.91723e-41
3.94652e-43
1.55513e-45
2.31075e-48
9.69093e-18
1.81446e-17
8.64244e-18
8.46922e-19
1.83205e-20
2.94164e-22
8.36511e-24
2.97648e-25
9.5287e-27
2.6478e-28
6.53423e-30
1.40753e-31
2.56839e-33
3.85206e-35
4.5492e-37
3.95046e-39
2.19552e-41
5.10509e-44
2.02431e-48
4.74016e-16
1.38406e-15
7.90629e-16
6.64116e-17
1.39198e-18
2.31642e-20
5.26267e-22
1.40882e-23
3.71338e-25
9.12113e-27
2.04736e-28
4.06598e-30
6.88798e-32
9.56676e-34
1.02865e-35
7.67352e-38
3.4689e-40
5.86473e-43
2.51095e-48
2.10018e-14
1.12338e-13
1.32511e-13
7.3294e-15
9.12598e-17
1.2853e-18
2.31172e-20
4.83913e-22
1.05809e-23
2.27098e-25
4.57842e-27
8.28947e-29
1.28825e-30
1.62448e-32
1.59383e-34
1.10288e-36
4.49954e-39
5.54561e-42
7.51076e-48
1.54478e-12
8.80141e-12
6.4808e-12
2.89301e-13
2.55855e-15
3.61744e-17
7.21265e-19
1.2244e-20
2.28589e-22
4.3088e-24
7.744e-26
1.26486e-27
1.80456e-29
2.15104e-31
1.96093e-33
1.28853e-35
4.98188e-38
4.72275e-41
3.24011e-47
1.99309e-11
1.10198e-10
3.41779e-11
1.75157e-12
2.26718e-14
3.74389e-16
1.07246e-17
1.90493e-19
3.35169e-21
5.88788e-23
9.7905e-25
1.50053e-26
2.02784e-28
2.23978e-30
2.00514e-32
1.30168e-34
4.37654e-37
2.02179e-40
5.51464e-47
9.02234e-11
1.53506e-10
5.43797e-11
2.71011e-12
9.76953e-14
1.78147e-15
4.06189e-17
1.21348e-18
2.74085e-20
5.15374e-22
8.74893e-24
1.3379e-25
1.75409e-27
1.96714e-29
1.78378e-31
1.11131e-33
3.72996e-36
4.21607e-40
1.19266e-46
2.52692e-11
3.21258e-11
2.36195e-12
3.76172e-13
2.92039e-13
7.87597e-15
3.31552e-18
1.9816e-18
1.16558e-19
2.88067e-21
5.59547e-23
9.14419e-25
1.22393e-26
1.3546e-28
1.21752e-30
7.672e-33
2.33698e-35
1.07097e-40
0
1
1
1
1
1
1
1
1
1
1
1
1
1
1
1
0.999999
0.999972
0.99965
0.921781
0.557196
0.125447
0.285642
0.965859
1
1
1
1
1
1
1
1
1
1
1
1
1
1
1
0.99999
0.999473
0.803495
0.221008
0.00418254
0.00370826
0.00938481
0.878043
1
1
1
1
1
1
1
1
1
1
1
1
1
1
0.999997
0.999832
0.779488
0.130848
0.0023485
0.00044871
0.000661672
0.00231752
0.42325
1
1
1
1
1
1
1
1
1
1
1
1
1
1
0.999958
0.887888
0.178023
0.00234514
0.000226745
4.48161e-05
0.000114023
0.000676153
0.00504538
1
1
1
1
1
1
1
1
1
1
1
1
1
0.999997
0.999523
0.328389
0.00266808
0.000226692
1.9169e-05
5.5856e-06
1.95827e-05
0.000112299
0.000551097
1
1
1
1
1
1
1
1
1
1
1
1
0.999999
0.999973
0.619501
0.0179156
0.000258407
1.70811e-05
2.21137e-06
7.23729e-07
3.87919e-06
1.96061e-05
0.000113438
1
1
1
1
1
1
1
1
1
1
1
0.999999
0.999987
0.970533
0.170568
0.000689494
2.18923e-05
1.82446e-06
1.86668e-07
1.00524e-07
6.51251e-07
1.01689e-05
2.37459e-05
1
1
1
1
1
1
1
1
0.999999
0.999998
0.999996
0.999986
0.999871
0.479413
0.00313325
3.99103e-05
1.87301e-06
1.6206e-07
1.86921e-08
1.35853e-08
1.11492e-07
1.7842e-06
4.63497e-06
1
1
1
1
0.999999
0.999999
0.999998
0.999997
0.999993
0.999983
0.999956
0.99987
0.998849
0.142301
0.000202478
2.40648e-06
1.77115e-07
1.74897e-08
2.38025e-09
2.17448e-09
1.36841e-08
1.50924e-07
8.50115e-07
1
0.999996
0.999995
0.999994
0.999992
0.999988
0.999982
0.999967
0.999928
0.999827
0.999596
0.998849
0.656601
0.0253044
1.14424e-05
2.02176e-07
1.73321e-08
2.21086e-09
9.70603e-10
8.34374e-10
1.79105e-09
1.21012e-08
1.0386e-07
1
0.999946
0.999941
0.999927
0.999902
0.999862
0.999797
0.99965
0.999271
0.998327
0.987957
0.905064
0.297153
0.00718352
3.91956e-06
1.71709e-08
1.70478e-09
8.721e-10
7.60211e-10
6.26704e-10
4.55427e-10
1.31925e-09
1.11621e-08
1
0.999371
0.999297
0.99914
0.998874
0.998464
0.99493
0.971703
0.904912
0.751279
0.489964
0.219205
0.0375575
0.0163129
0.000374918
1.06098e-06
1.34683e-08
-3.33356e-10
5.29731e-10
5.02083e-10
2.86593e-10
2.11119e-10
1.31748e-09
0.898338
0.854729
0.843646
0.805749
0.747005
0.662502
0.542674
0.380125
0.221143
0.0755595
1.45251e-07
5.38983e-07
1.16979e-06
0.0171571
0.00880765
2.4683e-05
3.89001e-07
1.88679e-09
8.18172e-11
2.65959e-10
1.53182e-10
6.08211e-11
2.00584e-10
0.197112
0.148957
0.136796
0.104948
0.067227
0.0288743
1.23071e-13
2.99077e-12
1.2251e-10
4.42745e-09
8.14733e-08
1.44132e-07
5.38983e-07
0.00388131
0.0101786
0.00172964
1.11876e-06
1.09864e-08
-4.0721e-11
2.74985e-11
5.27617e-11
1.97613e-11
3.7344e-11
-4.21615e-19
-1.8235e-18
-7.44897e-19
-7.91411e-18
4.77324e-33
2.55115e-17
2.54781e-15
1.23048e-13
2.75101e-12
1.22153e-10
4.42745e-09
1.08753e-07
7.84824e-07
3.42653e-06
0.0101166
0.00285654
3.30945e-07
5.7158e-08
8.90754e-10
2.80055e-13
1.27596e-11
3.90804e-12
1.04285e-11
-1.22089e-18
-5.22118e-18
-1.96096e-18
-1.5027e-17
1.45163e-16
2.21744e-14
1.21157e-12
9.41858e-12
3.32576e-10
1.98316e-08
8.02462e-07
4.73297e-06
5.06582e-06
5.23886e-06
0.00682396
0.00221625
3.96719e-08
2.00022e-10
-6.20532e-12
7.3837e-14
2.47813e-12
5.50896e-13
1.78129e-12
-1.40771e-18
-5.93645e-18
-1.43722e-18
8.78421e-18
3.86768e-15
3.2145e-13
1.01283e-11
1.73934e-10
5.79833e-09
1.09311e-07
2.99849e-06
0.000310505
0.000671424
0.000485912
0.00190142
0.000638868
5.33867e-09
-9.56149e-11
4.90557e-14
1.36409e-14
4.12346e-13
7.08289e-14
1.75501e-13
-8.54103e-19
-3.74764e-18
2.66218e-19
1.11165e-16
1.48025e-14
7.56468e-13
1.4786e-11
2.48296e-10
7.63571e-09
3.13394e-08
1.05155e-06
0.000590219
0.00115548
0.00115728
0.000892482
8.85914e-08
-4.99384e-10
1.78112e-12
-4.64525e-13
1.26542e-14
6.24147e-14
8.4648e-15
1.52137e-14
-1.87677e-19
-9.57321e-19
9.56226e-19
1.7008e-16
2.07384e-14
6.78959e-13
2.65819e-12
7.1782e-11
1.11652e-08
3.16617e-07
5.02121e-07
0.000255352
0.000892768
0.000498387
5.726e-07
9.37865e-09
4.10507e-11
-7.71896e-12
8.67499e-15
1.15511e-14
1.5333e-14
9.65244e-16
1.22293e-15
-7.25067e-22
0
1.54521e-19
2.3242e-17
1.5986e-15
1.4056e-13
8.23228e-12
6.11499e-11
9.88035e-08
1.16108e-06
4.94025e-07
2.60005e-10
1.94048e-09
9.82053e-09
1.66435e-08
7.94232e-10
-5.52956e-12
-3.50182e-14
1.4215e-15
1.01247e-14
9.25594e-15
1.09339e-16
8.60892e-17
-2.60807e-21
0
2.10911e-35
3.85321e-32
3.11242e-16
1.19016e-12
4.4971e-11
9.06897e-11
5.22538e-14
3.96097e-13
2.99168e-12
2.95116e-11
1.75335e-09
1.36655e-08
3.03857e-10
8.70809e-10
3.65876e-13
5.48168e-15
4.71257e-15
8.57045e-15
6.15222e-15
1.0878e-17
5.2719e-18
-6.47149e-21
-2.00392e-19
-2.6255e-18
-1.82849e-17
-6.78838e-17
-9.50539e-17
1.91215e-32
1.06892e-16
2.71215e-15
5.22538e-14
4.52819e-13
1.74535e-10
1.13312e-09
1.47286e-09
1.32976e-12
4.79336e-12
1.27434e-14
9.90178e-16
2.94507e-15
4.86766e-15
2.64018e-15
7.01284e-19
2.81829e-19
-5.03261e-21
-1.58362e-19
-2.14076e-18
-1.5697e-17
-6.36352e-17
-1.0732e-16
8.50993e-18
1.69221e-15
7.05022e-14
4.55277e-13
8.02514e-13
6.70296e-13
5.99286e-13
5.53343e-13
5.0483e-13
5.50369e-14
7.08735e-16
9.69908e-17
7.43149e-16
1.04002e-15
3.95932e-16
2.37991e-20
1.32626e-20
-1.87197e-21
-5.98797e-20
-8.29909e-19
-6.27434e-18
-2.59415e-17
-3.71314e-17
-7.00609e-27
1.23193e-15
6.67716e-14
7.02035e-13
1.95819e-12
2.58636e-12
1.70995e-12
5.4437e-13
9.72015e-14
1.71272e-15
3.54922e-17
1.09979e-17
4.70347e-17
5.09711e-17
1.16749e-17
5.39905e-22
5.39195e-22
-3.47819e-44
0
5.69866e-40
-1.0722e-35
-7.5212e-30
-1.7894e-27
6.70494e-20
1.1639e-17
1.00051e-14
3.23058e-13
1.86525e-12
3.35715e-12
3.66479e-12
2.97892e-12
5.60966e-13
2.20102e-15
3.47451e-16
3.33399e-19
9.29542e-19
6.43254e-19
4.59096e-20
1.33313e-23
1.91276e-23
0
3.19819e-31
4.54179e-29
3.72709e-27
2.26788e-25
1.08912e-23
4.18048e-22
2.10115e-20
1.7918e-17
1.50705e-15
1.82871e-14
6.42436e-14
1.02111e-13
5.71289e-14
1.07453e-14
1.37675e-15
4.38865e-16
9.84126e-21
2.8801e-20
5.91447e-21
8.15198e-24
3.4127e-25
5.87489e-25
0
4.98701e-35
5.47216e-33
2.98421e-31
3.30967e-30
-8.49589e-28
-1.7886e-23
7.501e-24
1.40329e-19
1.34508e-17
1.68612e-16
5.62999e-16
8.2358e-16
8.09266e-16
2.53528e-16
9.26036e-17
7.61574e-17
-7.22952e-20
1.42473e-21
4.60479e-23
1.03995e-25
7.78735e-27
1.5547e-26
0
-6.02285e-38
-1.91126e-35
-2.62121e-33
-2.31116e-31
-1.49222e-29
-1.75803e-27
3.73526e-27
4.76629e-25
8.40965e-22
8.2873e-20
1.33929e-18
5.55729e-18
9.25694e-18
9.65615e-18
2.94314e-18
1.14289e-19
-1.01153e-20
2.33925e-23
5.9393e-25
2.3777e-27
1.50564e-28
3.57402e-28
-1.08436e-41
-3.079e-39
-4.39803e-37
-4.16212e-35
-2.91544e-33
-1.60829e-31
1.19634e-32
5.3282e-31
7.8117e-29
4.72771e-25
1.14596e-22
3.37912e-21
2.10315e-20
4.36996e-20
4.97714e-20
1.93609e-20
5.7876e-22
4.74437e-23
3.50085e-25
1.12538e-26
4.51798e-29
2.44135e-30
7.15943e-30
-1.89031e-60
2.56256e-46
4.36381e-44
4.95897e-42
4.23591e-40
2.90494e-38
1.6691e-36
8.28307e-35
5.1173e-33
3.26973e-30
9.57389e-27
8.47037e-25
1.44528e-23
6.37093e-23
1.11596e-22
1.20625e-22
5.36574e-23
1.56366e-23
1.50645e-26
2.7557e-28
7.33837e-31
3.42453e-32
1.24411e-31
-2.17921e-66
4.22926e-50
8.00468e-48
1.01102e-45
9.59082e-44
7.29375e-42
4.60499e-40
-4.3205e-38
2.16311e-36
1.14724e-34
1.89097e-31
8.85968e-29
7.309e-27
1.09908e-25
3.90858e-25
5.53447e-25
3.52135e-25
1.28725e-26
9.87351e-28
6.54273e-30
1.02097e-32
4.14655e-34
1.89102e-33
1.44066e-68
1.8375e-55
-8.10464e-53
-4.27901e-50
-8.84638e-48
-1.24048e-45
-4.55808e-42
-1.19717e-41
1.34441e-41
1.18359e-39
5.21672e-36
2.85411e-32
4.19778e-30
1.02478e-28
4.92943e-28
7.8686e-28
5.88708e-28
2.41803e-29
2.20245e-29
1.24964e-31
1.32759e-34
1.54163e-35
2.45705e-35
-1.06174e-73
-9.0844e-59
-4.55905e-56
-9.86762e-54
-1.38004e-51
-1.42608e-49
-2.27243e-47
9.33114e-47
1.02063e-44
6.23086e-43
3.59736e-41
3.13654e-38
1.33267e-35
2.46715e-33
1.00999e-31
7.22741e-31
1.38728e-30
1.24979e-30
1.02e-32
1.27704e-33
1.7491e-36
4.47845e-37
2.76677e-37
-1.56769e-63
-7.25676e-61
-1.68167e-58
-2.59256e-56
-2.9837e-54
-2.73716e-52
7.72757e-53
6.46062e-51
7.54359e-49
5.96734e-47
3.7301e-45
5.77004e-43
5.46404e-39
1.76387e-36
1.25658e-34
1.34954e-33
3.18738e-33
3.16268e-33
2.29775e-35
2.03252e-35
3.47648e-38
9.20304e-39
2.78453e-39
-4.06191e-82
2.46143e-69
8.00049e-67
1.74056e-64
2.85997e-62
3.79298e-60
4.23897e-58
4.11707e-56
1.03971e-54
5.3233e-52
3.9462e-50
7.02364e-48
2.19281e-43
1.94664e-40
2.71293e-38
5.19398e-37
1.87715e-36
2.37016e-36
5.08971e-37
8.96846e-38
8.13894e-39
1.75785e-40
2.57201e-41
-1.07532e-89
1.56006e-73
6.05741e-71
1.57222e-68
3.07473e-66
4.85285e-64
6.45461e-62
-9.73877e-60
1.43456e-57
1.4411e-55
1.29847e-53
1.08825e-51
9.3168e-50
1.97671e-46
1.41238e-43
3.43701e-41
1.11103e-39
5.43511e-39
7.44548e-39
3.48272e-40
1.15371e-40
2.53857e-42
2.4661e-43
-2.44428e-92
6.46454e-79
-9.01191e-77
-2.76048e-73
-1.28044e-70
-3.64881e-68
-2.01139e-64
-9.69878e-64
2.18893e-62
3.23901e-60
3.60773e-58
3.79682e-56
3.77935e-54
1.49122e-51
4.87769e-47
2.55258e-44
1.46893e-42
1.04082e-41
1.68729e-41
1.77143e-42
1.43332e-42
3.4328e-44
2.90865e-45
-8.61866e-98
-1.40785e-82
-1.46579e-79
-6.92423e-77
-2.14005e-74
-4.9246e-72
-1.7514e-69
1.25003e-69
3.07991e-67
5.94545e-65
8.56038e-63
1.16532e-60
1.50787e-58
1.91753e-56
5.09585e-53
7.93733e-49
2.26475e-46
6.49377e-45
2.84203e-44
3.76079e-44
6.78899e-45
4.64615e-46
4.34483e-47
-9.38526e-90
-1.11461e-86
-6.52893e-84
-2.53638e-81
-7.36676e-79
-1.71132e-76
1.53404e-76
4.03913e-74
1.67506e-71
3.80873e-69
7.68748e-67
1.46678e-64
2.68224e-62
4.73419e-60
8.24935e-58
8.09967e-55
1.11817e-50
3.22273e-48
6.96822e-47
1.98286e-46
3.46533e-47
5.8754e-48
7.02245e-49
6.62123e-109
6.92113e-97
1.06725e-93
1.06829e-90
8.0047e-88
4.83134e-85
2.46244e-82
1.09548e-79
5.52116e-77
2.97987e-74
1.01057e-71
3.23314e-69
9.89434e-67
2.93361e-64
8.48486e-62
4.20465e-59
3.4654e-54
3.40511e-51
1.54475e-49
6.35044e-49
1.86093e-49
6.85219e-50
1.11857e-50
-1.71982e-117
1.03933e-109
5.17695e-106
-1.25943e-98
-9.81679e-95
-1.68241e-91
-1.80839e-88
-7.76484e-84
-2.13441e-83
2.17994e-83
4.42617e-80
4.36899e-77
4.11082e-74
3.73501e-71
3.30871e-68
1.11818e-64
8.14464e-59
1.52843e-54
2.11722e-52
1.51992e-51
1.0964e-51
7.83577e-52
1.80954e-52
0
0
-9.59462e-112
-2.02871e-107
-1.0659e-103
-3.49091e-100
-1.16042e-95
-4.41557e-93
-2.74866e-102
-5.71886e-100
-3.17498e-96
-1.49917e-94
-4.12435e-91
0
0
7.41757e-82
5.19095e-67
1.09909e-60
1.77164e-56
1.67509e-54
9.60637e-54
9.96506e-53
2.88798e-53
0.387423
0
2.03902e-33
1.25315e-27
0.537744
0.0223228
9.42459e-13
2.00529e-07
0.524645
0.150892
1.66714e-08
1.34925e-07
0.319524
0.24317
0.0155016
1.50518e-07
0.0240694
0.168263
0.0656077
0.000680655
0.00209061
0.0136185
0.0681672
0.0384445
0.000383978
0.00112533
0.0126436
0.0251942
6.04042e-05
0.00018608
0.000478831
0.00099767
8.23065e-06
2.54863e-05
7.04417e-05
0.000102211
1.00735e-06
3.13789e-06
8.64953e-06
1.32017e-05
1.15401e-07
3.50074e-07
9.51931e-07
1.45598e-06
1.23094e-08
3.63948e-08
9.57844e-08
1.44721e-07
1.23493e-09
3.54023e-09
9.02338e-09
1.32768e-08
1.40224e-10
3.28424e-10
8.02651e-10
1.14696e-09
1.68138e-11
4.00462e-11
8.11384e-11
1.08974e-10
3.62054e-12
6.28866e-12
8.5602e-12
1.13086e-11
4.54485e-13
9.39464e-13
1.55841e-12
2.1694e-12
3.79089e-14
8.44858e-14
1.53366e-13
2.12186e-13
2.97632e-15
6.19929e-15
1.04092e-14
1.29518e-14
2.13454e-16
4.25608e-16
6.58948e-16
7.42018e-16
1.35666e-17
2.59787e-17
3.70287e-17
3.89679e-17
7.55414e-19
1.38765e-18
1.82373e-18
1.83422e-18
3.65674e-20
6.44294e-20
7.90595e-20
7.71545e-20
1.53287e-21
2.60392e-21
3.02201e-21
2.88861e-21
5.56021e-23
9.18921e-23
1.01968e-22
9.63081e-23
1.74652e-24
2.8385e-24
3.04741e-24
2.86426e-24
4.75768e-26
7.69421e-26
8.1003e-26
7.61167e-26
1.12612e-27
1.83541e-27
1.9232e-27
1.81114e-27
2.32192e-29
3.8649e-29
4.0951e-29
3.86755e-29
4.18338e-31
7.20798e-31
7.84869e-31
7.42998e-31
6.60828e-33
1.19473e-32
1.35829e-32
1.28715e-32
9.18562e-35
1.76642e-34
2.12856e-34
2.01485e-34
1.12749e-36
2.33848e-36
3.02884e-36
2.85345e-36
1.22669e-38
2.782e-38
3.91919e-38
3.68208e-38
1.1886e-40
2.98103e-40
4.59723e-40
4.50719e-40
1.03232e-42
2.88417e-42
4.89465e-42
5.39008e-42
8.14814e-45
2.54816e-44
4.81284e-44
6.00323e-44
6.07381e-47
2.07894e-46
4.39459e-46
6.22385e-46
4.70599e-49
1.59778e-48
3.7541e-48
6.05194e-48
4.52814e-51
1.22194e-50
3.05066e-50
5.55723e-50
5.08759e-53
8.45533e-53
2.09748e-52
4.07612e-52
2.78039e-53
2.78039e-53
3.84339e-53
7.8723e-53
4.84281e-11
4.11428e-11
5.21857e-12
8.53695e-13
5.55292e-13
1.25717e-13
4.31792e-15
6.6661e-17
1.44953e-18
3.47173e-20
7.4751e-22
1.40179e-23
2.23082e-25
2.89072e-27
2.85159e-29
1.86133e-31
6.16013e-34
2.51867e-37
1.01451e-42
3.30584e-07
6.77478e-09
2.51748e-10
9.46428e-12
4.55231e-13
3.14378e-13
4.36138e-14
8.01262e-16
9.37623e-18
1.68923e-19
3.27497e-21
5.78129e-23
9.02283e-25
1.2139e-26
1.3264e-28
1.08507e-30
5.87917e-33
1.65691e-35
9.23072e-39
1.73466e-07
2.74589e-07
1.1944e-08
2.35908e-10
4.34153e-12
2.28889e-13
1.83675e-13
6.89263e-15
7.90718e-17
8.72316e-19
1.26689e-20
1.78915e-22
2.1998e-24
2.38971e-26
2.31276e-28
1.90809e-30
1.21358e-32
5.07005e-35
9.81749e-38
1.78085e-07
9.18393e-06
3.56021e-06
2.46339e-07
9.46535e-11
2.60877e-12
1.20266e-12
1.03118e-13
9.53874e-16
4.03601e-18
1.51588e-20
1.59155e-22
2.77724e-24
3.25999e-26
2.85712e-28
2.01902e-30
1.16523e-32
4.79651e-35
9.95915e-38
3.33586e-05
9.36557e-06
3.31028e-05
3.48177e-06
4.61235e-09
8.7709e-11
2.52418e-12
8.88709e-13
4.05684e-14
3.3446e-16
2.31811e-18
1.46432e-20
7.66302e-23
3.16281e-25
9.32639e-28
1.77887e-30
2.34566e-33
1.53628e-36
9.91387e-40
0.00164582
3.86341e-05
3.45433e-05
7.44134e-06
1.27661e-07
9.21326e-10
2.3244e-11
7.73758e-13
2.77403e-13
6.84492e-15
5.26613e-17
3.83689e-19
2.30358e-21
1.07385e-23
3.55284e-26
6.68078e-29
7.61723e-32
3.53519e-35
2.46313e-41
0.0166236
0.00404437
8.86541e-05
3.89537e-06
2.05305e-07
7.87499e-09
2.31129e-10
8.78995e-12
1.98449e-13
2.19685e-14
3.52059e-16
2.86252e-18
2.04615e-20
1.15381e-22
4.92483e-25
1.3843e-27
1.72204e-30
7.22839e-34
9.39697e-40
0.00691502
0.00605737
0.000806262
7.81199e-06
4.79135e-07
2.13423e-08
7.20914e-10
2.03751e-11
5.90514e-13
2.95797e-14
5.98248e-16
6.52977e-18
5.74457e-20
3.9752e-22
2.08189e-24
7.89892e-27
1.94535e-29
2.3634e-32
1.93674e-36
0.000123322
0.000938971
0.000337234
1.9385e-06
1.22686e-07
5.84914e-09
2.15204e-10
7.49522e-12
2.08977e-13
1.19397e-14
2.20813e-16
2.79844e-18
3.01907e-20
2.56725e-22
1.68269e-24
8.21222e-27
2.80648e-29
5.89398e-32
5.38433e-35
1.60175e-05
8.68192e-06
8.68139e-06
8.18303e-07
9.62647e-09
4.50788e-10
1.9904e-11
7.65337e-13
6.33704e-14
1.64174e-15
2.73197e-17
4.01122e-19
4.8618e-21
4.76099e-23
3.6844e-25
2.17598e-27
9.18553e-30
2.48979e-32
3.16735e-35
1.74977e-06
8.36105e-07
1.55426e-07
2.24309e-08
1.0455e-09
5.11572e-11
2.48373e-12
2.58868e-13
8.8757e-15
1.73327e-16
2.98891e-18
4.30774e-20
5.10215e-22
4.90505e-24
3.74758e-26
2.19835e-28
9.33165e-31
2.55972e-33
3.32981e-36
1.68576e-07
7.29502e-08
1.28293e-08
1.46967e-09
1.02605e-10
5.88349e-12
7.7494e-13
3.46489e-14
8.25609e-16
1.7534e-17
3.13118e-19
4.62851e-21
5.62644e-23
5.55416e-25
4.36007e-27
2.63003e-29
1.14944e-31
3.2499e-34
4.36385e-37
1.48294e-08
5.89052e-09
9.91637e-10
1.38454e-10
1.0528e-11
1.60405e-12
9.02184e-14
2.62241e-15
6.78208e-17
1.47939e-18
2.68205e-20
4.03453e-22
5.00285e-24
5.05015e-26
4.0646e-28
2.52094e-30
1.13649e-32
3.32762e-35
4.65188e-38
1.22155e-09
4.69306e-10
9.75339e-11
1.2358e-11
2.32587e-12
1.64803e-13
5.84598e-15
1.835e-16
4.84063e-18
1.06011e-19
1.93345e-21
2.93229e-23
3.67437e-25
3.75756e-27
3.0719e-29
1.94075e-31
8.93974e-34
2.68395e-36
3.86299e-39
1.19236e-10
4.72552e-11
9.25401e-12
2.343e-12
2.12069e-13
9.40073e-15
3.60485e-16
1.14714e-17
3.01287e-19
6.58253e-21
1.2002e-22
1.82361e-24
2.29455e-26
2.36185e-28
1.9484e-30
1.24539e-32
5.82038e-35
1.77841e-37
2.61289e-40
1.11883e-11
6.33817e-12
1.74887e-12
1.92158e-13
1.10281e-14
5.24205e-16
2.02195e-17
6.35998e-19
1.65459e-20
3.58916e-22
6.51167e-24
9.86684e-26
1.24095e-27
1.27982e-29
1.06041e-31
6.82484e-34
3.22013e-36
9.96112e-39
1.48487e-41
2.14918e-12
8.35793e-13
1.28682e-13
9.53662e-15
5.70375e-16
2.69324e-17
1.01868e-18
3.15262e-20
8.09346e-22
1.73681e-23
3.12471e-25
4.70624e-27
5.89726e-29
6.07392e-31
5.03792e-33
3.25375e-35
1.5444e-37
4.81854e-40
7.25464e-43
2.06294e-13
5.05083e-14
5.89797e-15
4.63552e-16
2.727e-17
1.25257e-18
4.63025e-20
1.40602e-21
3.55262e-23
7.52409e-25
1.33936e-26
2.00081e-28
2.4926e-30
2.55834e-32
2.11949e-34
1.37046e-36
6.52782e-39
2.04876e-41
3.10471e-44
1.15774e-14
2.41728e-15
2.70877e-16
2.07786e-17
1.18335e-18
5.28096e-20
1.90553e-21
5.66966e-23
1.40815e-24
2.93987e-26
5.17197e-28
7.65429e-30
9.46918e-32
9.6731e-34
7.99376e-36
5.16721e-38
2.46599e-40
7.77141e-43
1.18222e-45
6.03137e-16
1.16265e-16
1.19308e-17
8.51329e-19
4.66141e-20
2.02175e-21
7.12201e-23
2.07622e-24
5.06812e-26
1.04283e-27
1.81284e-29
2.65731e-31
3.26327e-33
3.31635e-35
2.73208e-37
1.7642e-39
8.42787e-42
2.66396e-44
4.05871e-47
2.91724e-17
5.15176e-18
4.96882e-19
3.27239e-20
1.68804e-21
7.05505e-23
2.42639e-24
6.93922e-26
1.66582e-27
3.37985e-29
5.8086e-31
8.43653e-33
1.02869e-34
1.04013e-36
8.54294e-39
5.50992e-41
2.63385e-43
8.34613e-46
1.27016e-48
1.27124e-18
2.08351e-19
1.91846e-20
1.20186e-21
5.77891e-23
2.28364e-24
7.58202e-26
2.12554e-27
5.02842e-29
1.0075e-30
1.71346e-32
2.46819e-34
2.99023e-36
3.00967e-38
2.46539e-40
1.58858e-42
7.59876e-45
2.41414e-47
3.65583e-50
4.97401e-20
7.69304e-21
6.83933e-22
4.13154e-23
1.90295e-24
7.09221e-26
2.22599e-27
6.03112e-29
1.40228e-30
2.77926e-32
4.68519e-34
6.70142e-36
8.07646e-38
8.10053e-40
6.62105e-42
4.26453e-44
2.04178e-46
6.50627e-49
9.75167e-52
1.75206e-21
2.5911e-22
2.25053e-23
1.32422e-24
5.91542e-26
2.12634e-27
6.37565e-29
1.63304e-30
3.67833e-32
7.15035e-34
1.19521e-35
1.70029e-37
2.04136e-39
2.04231e-41
1.6674e-43
1.0742e-45
5.15139e-48
1.6478e-50
2.42824e-53
5.56309e-23
7.95898e-24
6.8325e-25
3.95792e-26
1.73054e-27
6.0625e-29
1.76484e-30
4.37067e-32
9.39853e-34
1.75972e-35
2.88244e-37
4.06351e-39
4.8629e-41
4.85818e-43
3.96647e-45
2.55733e-47
1.2292e-49
3.95279e-52
5.6938e-55
1.59429e-24
2.23139e-25
1.91452e-26
1.10318e-27
4.76626e-29
1.64095e-30
4.67717e-32
1.13168e-33
2.37064e-35
4.29988e-37
6.78115e-39
9.35087e-41
1.10494e-42
1.09912e-44
8.97312e-47
5.79499e-49
2.79281e-51
9.04134e-54
1.26874e-56
4.1335e-26
5.72081e-27
4.95801e-28
2.8699e-29
1.23638e-30
4.2184e-32
1.18616e-33
2.82282e-35
5.80654e-37
1.03289e-38
1.59633e-40
2.14431e-42
2.46582e-44
2.41737e-46
1.95939e-48
1.26155e-50
6.08853e-53
1.98597e-55
2.7066e-58
9.72719e-28
1.34526e-28
1.18941e-29
6.98036e-31
3.02413e-32
1.03059e-33
2.87968e-35
6.78537e-37
1.3785e-38
2.41896e-40
3.68717e-42
4.88236e-44
5.5379e-46
5.33692e-48
4.25423e-50
2.7061e-52
1.30077e-54
4.26545e-57
5.65635e-60
2.08619e-29
2.91333e-30
2.65186e-31
1.59138e-32
6.98778e-34
2.39585e-35
6.69742e-37
1.57229e-38
3.17289e-40
5.52033e-42
8.33505e-44
1.09308e-45
1.22859e-47
1.17366e-49
9.28416e-52
5.86585e-54
2.80176e-56
9.20915e-59
1.19464e-61
4.09722e-31
5.83992e-32
5.51768e-33
3.41165e-34
1.52916e-35
5.30988e-37
1.49417e-38
3.51483e-40
7.08287e-42
1.22772e-43
1.84417e-45
2.40409e-47
2.68592e-49
2.55153e-51
2.00905e-53
1.26505e-55
6.03317e-58
1.99732e-60
2.53752e-63
7.4073e-33
1.08985e-33
1.07656e-34
6.90428e-36
3.17879e-37
1.12458e-38
3.20329e-40
7.58998e-42
1.53468e-43
2.66195e-45
3.99383e-47
5.19377e-49
5.78588e-51
5.48005e-53
4.30469e-55
2.70735e-57
1.29269e-59
4.32619e-62
5.42499e-65
1.23943e-34
1.9051e-35
1.98004e-36
1.32462e-37
6.299e-39
2.28233e-40
6.61376e-42
1.58587e-43
3.23155e-45
5.63148e-47
8.46981e-49
1.10238e-50
1.22812e-52
1.16288e-54
9.13698e-57
5.75671e-59
2.76323e-61
9.40972e-64
1.18606e-66
1.92997e-36
3.13802e-37
3.45136e-38
2.42016e-39
1.19429e-40
4.45249e-42
1.31844e-43
3.21271e-45
6.62332e-47
1.16382e-48
1.76051e-50
2.30033e-52
2.57022e-54
2.44014e-56
1.92427e-58
1.22032e-60
5.93522e-63
2.08386e-65
2.73754e-68
2.80311e-38
4.89734e-39
5.73128e-40
4.23022e-41
2.17518e-42
8.37761e-44
2.54479e-45
6.32509e-47
1.32388e-48
2.35329e-50
3.59143e-52
4.72507e-54
5.31153e-56
5.07499e-58
4.03808e-60
2.6003e-62
1.30151e-64
4.82963e-67
7.01042e-70
3.756e-40
7.27649e-41
9.11135e-42
7.1059e-43
3.821e-44
1.5257e-45
4.77048e-47
1.21339e-48
2.58654e-50
4.66522e-52
7.20456e-54
9.57506e-56
1.08724e-57
1.05158e-59
8.52423e-62
5.66877e-64
3.00495e-66
1.22486e-68
2.09199e-71
4.62869e-42
1.03359e-42
1.39304e-43
1.15225e-44
6.50054e-46
2.69935e-47
8.71416e-49
2.27488e-50
4.95289e-52
9.09119e-54
1.42538e-55
1.92169e-57
2.21813e-59
2.1948e-61
1.84619e-63
1.30735e-65
7.6649e-68
3.57054e-70
7.34986e-73
5.386e-44
1.40906e-44
2.05737e-45
1.81165e-46
1.07559e-47
4.65793e-49
1.55669e-50
4.18214e-52
9.32644e-54
1.74794e-55
2.79466e-57
3.84799e-59
4.56766e-61
4.71752e-63
4.25467e-65
3.35476e-67
2.26846e-69
1.22073e-71
2.92721e-74
5.98207e-46
1.8514e-46
2.94847e-47
2.7746e-48
1.73858e-49
7.87221e-51
2.73058e-52
7.57006e-54
1.73486e-55
3.33535e-57
5.47811e-59
7.80079e-61
9.73453e-63
1.08684e-64
1.10023e-66
1.00511e-68
7.90009e-71
4.76638e-73
1.25483e-75
6.39613e-48
2.35645e-48
4.12106e-49
4.16001e-50
2.75873e-51
1.30933e-52
4.72627e-54
1.35666e-55
3.21067e-57
6.3834e-59
1.09219e-60
1.64723e-62
2.24388e-64
2.83783e-66
3.34508e-68
3.54829e-70
3.13254e-72
2.02513e-74
5.57757e-77
6.65424e-50
2.92427e-50
5.65176e-51
6.14192e-52
4.32239e-53
2.15618e-54
8.12823e-56
2.42866e-57
5.98835e-59
1.25076e-60
2.28915e-62
3.80441e-64
5.93105e-66
8.77767e-68
1.19944e-69
1.42216e-71
1.34571e-73
8.99988e-76
2.51991e-78
5.43641e-52
3.27744e-52
7.34487e-53
8.78277e-54
6.64507e-55
3.51895e-56
1.39981e-57
4.41222e-59
1.15438e-60
2.6116e-62
5.3417e-64
1.02602e-65
1.88415e-67
3.22912e-69
4.91023e-71
6.21685e-73
6.09285e-75
4.13119e-77
1.15878e-79
1.3811e-52
2.99578e-53
3.48179e-54
2.57335e-55
1.33395e-56
5.1819e-58
1.58665e-59
4.14182e-61
1.18856e-62
3.05213e-64
7.30509e-66
1.65746e-67
3.52653e-69
6.71628e-71
1.09081e-72
1.43369e-74
1.43255e-76
9.77502e-79
2.7323e-81
)
;

boundaryField
{
    leftWall
    {
        type            zeroGradient;
    }
    rightWall
    {
        type            zeroGradient;
    }
    lowerWall
    {
        type            zeroGradient;
    }
    atmosphere
    {
        type            inletOutlet;
        inletValue      uniform 0;
        value           nonuniform List<scalar> 
46
(
0
0
0
0
0
0
0
0
0
0
0
0
0
0
0
0
0
0
0
0
9.60637e-54
9.96506e-53
2.88798e-53
2.78039e-53
2.78039e-53
3.84339e-53
7.8723e-53
1.3811e-52
2.99578e-53
3.48179e-54
2.57335e-55
1.33395e-56
5.1819e-58
1.58665e-59
4.14182e-61
1.18856e-62
3.05213e-64
7.30509e-66
1.65746e-67
3.52653e-69
6.71628e-71
1.09081e-72
1.43369e-74
1.43255e-76
9.77502e-79
2.7323e-81
)
;
    }
    defaultFaces
    {
        type            empty;
    }
}


// ************************************************************************* //
