/*--------------------------------*- C++ -*----------------------------------*\
| =========                 |                                                 |
| \\      /  F ield         | OpenFOAM: The Open Source CFD Toolbox           |
|  \\    /   O peration     | Version:  5.x                                   |
|   \\  /    A nd           | Web:      www.OpenFOAM.org                      |
|    \\/     M anipulation  |                                                 |
\*---------------------------------------------------------------------------*/
FoamFile
{
    version     2.0;
    format      ascii;
    class       surfaceScalarField;
    location    "0.15";
    object      alphaPhi10;
}
// * * * * * * * * * * * * * * * * * * * * * * * * * * * * * * * * * * * * * //

dimensions      [0 3 -1 0 0 0 0];

internalField   nonuniform List<scalar> 
4432
(
4.34509e-06
-4.34509e-06
1.11624e-05
-6.81727e-06
1.79121e-05
-6.74969e-06
2.43242e-05
-6.41217e-06
3.0681e-05
-6.35683e-06
3.71937e-05
-6.51269e-06
4.39642e-05
-6.77042e-06
5.10313e-05
-7.06717e-06
5.84091e-05
-7.3778e-06
6.60954e-05
-7.68626e-06
7.40658e-05
-7.97041e-06
8.2263e-05
-8.19719e-06
9.05592e-05
-8.29626e-06
9.87042e-05
-8.14494e-06
0.000106294
-7.59028e-06
0.00011274
-6.44544e-06
0.000117013
-4.27346e-06
0.000116961
5.24276e-08
0.000107941
9.02008e-06
8.38842e-05
2.39894e-05
4.42383e-05
3.9648e-05
2.94261e-06
4.12957e-05
2.24469e-06
4.37844e-06
-8.72354e-06
1.1178e-05
-1.36169e-05
1.79297e-05
-1.35014e-05
2.43537e-05
-1.28361e-05
3.07178e-05
-1.27209e-05
3.72382e-05
-1.30331e-05
4.40177e-05
-1.35499e-05
5.10951e-05
-1.41446e-05
5.84864e-05
-1.47691e-05
6.61908e-05
-1.53907e-05
7.4183e-05
-1.59626e-05
8.24122e-05
-1.64264e-05
9.07708e-05
-1.66549e-05
9.9036e-05
-1.64101e-05
0.000106829
-1.53835e-05
0.000113567
-1.31829e-05
0.000118437
-9.14397e-06
0.000120658
-2.1689e-06
0.000119641
1.00376e-05
0.000111996
3.15977e-05
8.8642e-05
6.30168e-05
4.40264e-05
8.59103e-05
4.13632e-05
4.40198e-06
-1.31255e-05
1.11597e-05
-2.03746e-05
1.78676e-05
-2.02092e-05
2.42623e-05
-1.92308e-05
3.06043e-05
-1.90629e-05
3.71078e-05
-1.95367e-05
4.38739e-05
-2.0316e-05
5.0941e-05
-2.12117e-05
5.83282e-05
-2.21563e-05
6.60382e-05
-2.31006e-05
7.4052e-05
-2.39764e-05
8.2332e-05
-2.47064e-05
9.07914e-05
-2.51142e-05
9.92395e-05
-2.48583e-05
0.000107348
-2.34916e-05
0.000114608
-2.04437e-05
0.00012025
-1.47854e-05
0.000122905
-4.82439e-06
0.000120825
1.21181e-05
0.000112966
3.94567e-05
9.64645e-05
7.94731e-05
5.91658e-05
0.000123208
9.85505e-05
4.4319e-06
-1.75574e-05
1.11407e-05
-2.70834e-05
1.77843e-05
-2.68528e-05
2.41318e-05
-2.55783e-05
3.04427e-05
-2.53737e-05
3.69249e-05
-2.60189e-05
4.36754e-05
-2.70665e-05
5.07323e-05
-2.82686e-05
5.81188e-05
-2.95428e-05
6.58436e-05
-3.08254e-05
7.38998e-05
-3.20326e-05
8.22677e-05
-3.30744e-05
9.08828e-05
-3.37293e-05
9.95962e-05
-3.35717e-05
0.00010816
-3.20549e-05
0.000116161
-2.84457e-05
0.000122857
-2.14804e-05
0.000127015
-8.98318e-06
0.000126526
1.26071e-05
0.000118267
4.77161e-05
9.95237e-05
9.81467e-05
6.35316e-05
0.000159197
0.000168497
4.46855e-06
-2.2026e-05
1.11192e-05
-3.37341e-05
1.76797e-05
-3.34133e-05
2.39644e-05
-3.1863e-05
3.02362e-05
-3.16456e-05
3.6694e-05
-3.24767e-05
4.34272e-05
-3.37998e-05
5.04741e-05
-3.53155e-05
5.78633e-05
-3.6932e-05
6.56112e-05
-3.85733e-05
7.37269e-05
-4.01483e-05
8.22119e-05
-4.15595e-05
9.10224e-05
-4.25398e-05
0.000100063
-4.26126e-05
0.0001092
-4.11915e-05
0.000118131
-3.73767e-05
0.000126175
-2.95245e-05
0.000132243
-1.50509e-05
0.000134548
1.0302e-05
0.000129186
5.30773e-05
0.000108347
0.000118941
6.92949e-05
0.00019825
0.000238844
4.51634e-06
-2.65423e-05
1.10956e-05
-4.03133e-05
1.75529e-05
-3.98706e-05
2.37608e-05
-3.8071e-05
2.9987e-05
-3.78717e-05
3.64161e-05
-3.89057e-05
4.31282e-05
-4.05119e-05
5.01612e-05
-4.23485e-05
5.75497e-05
-4.43204e-05
6.53194e-05
-4.6343e-05
7.34992e-05
-4.8328e-05
8.21122e-05
-5.01725e-05
9.11335e-05
-5.15611e-05
0.00010053
-5.20093e-05
0.000110303
-5.09638e-05
0.000120272
-4.73464e-05
0.000129848
-3.90998e-05
0.000138251
-2.34545e-05
0.00014467
3.88334e-06
0.000145064
5.21831e-05
0.000124376
0.000139632
7.95996e-05
0.000242983
0.000318441
4.57658e-06
-3.11189e-05
1.10633e-05
-4.68e-05
1.73957e-05
-4.6203e-05
2.35136e-05
-4.41888e-05
2.96853e-05
-4.40435e-05
3.60767e-05
-4.52972e-05
4.27572e-05
-4.71924e-05
4.97648e-05
-4.93562e-05
5.71409e-05
-5.16965e-05
6.4922e-05
-5.41241e-05
7.3158e-05
-5.6564e-05
8.18923e-05
-5.89069e-05
9.11263e-05
-6.07951e-05
0.0001009
-6.17827e-05
0.000111339
-6.14027e-05
0.000122396
-5.84044e-05
0.000133648
-5.0351e-05
0.000144893
-3.46998e-05
0.000156524
-7.74789e-06
0.000162986
4.16035e-05
0.000142023
0.000149125
9.03115e-05
0.000294655
0.000407854
4.64137e-06
-3.57603e-05
1.10059e-05
-5.31646e-05
1.7199e-05
-5.23961e-05
2.32156e-05
-5.02054e-05
2.93202e-05
-5.01481e-05
3.56601e-05
-5.1637e-05
4.22936e-05
-5.38259e-05
4.92606e-05
-5.63231e-05
5.66096e-05
-5.90454e-05
6.43889e-05
-6.19035e-05
7.26678e-05
-6.48429e-05
8.15068e-05
-6.77459e-05
9.0947e-05
-7.02353e-05
0.000101111
-7.19468e-05
0.000112207
-7.24985e-05
0.000124334
-7.05313e-05
0.000137392
-6.34098e-05
0.000151484
-4.87975e-05
0.000167117
-2.34064e-05
0.000160881
2.26691e-05
0.000121565
8.6217e-05
8.6083e-05
0.000277209
0.000491625
-1.36296e-24
1.19329e-24
-1.51421e-24
7.28702e-25
-2.44423e-25
1.63245e-25
-6.45561e-27
5.39079e-28
-9.30593e-29
-6.80842e-28
-2.68431e-30
-1.85675e-29
-9.20073e-32
-6.87728e-31
-2.54301e-33
-2.7951e-32
-5.73989e-35
-8.99469e-34
-1.12445e-36
-2.30047e-35
-1.88846e-38
-4.98107e-37
-2.64838e-40
-9.09534e-39
-3.03839e-42
-1.37077e-40
-2.7045e-44
-1.74709e-42
-1.81029e-46
-1.66178e-44
-8.02764e-49
-1.30275e-46
-1.92581e-51
-6.85776e-49
-6.84119e-55
-1.84985e-51
-5.99637e-55
-2.37311e-22
4.73572e-22
-2.43151e-22
4.25672e-22
-3.3979e-23
8.49873e-23
-9.09054e-25
-4.17476e-25
-1.50252e-26
-1.73998e-25
-3.4902e-28
-5.15765e-27
-9.25857e-30
-1.50819e-28
-2.22149e-31
-4.51052e-30
-4.59052e-33
-1.19504e-31
-8.30948e-35
-2.70537e-33
-1.29033e-36
-5.33402e-35
-1.66289e-38
-8.98193e-37
-1.72e-40
-1.25594e-38
-1.37115e-42
-1.44302e-40
-7.72877e-45
-1.24757e-42
-2.68834e-47
-7.66923e-45
-3.66816e-50
-2.95568e-47
-3.42677e-55
-5.28181e-50
-9.6272e-55
-1.9895e-20
3.6775e-20
-2.24743e-20
4.8717e-20
-2.96777e-21
1.08356e-20
-7.2969e-23
-2.78905e-22
-1.16298e-24
-3.07059e-23
-2.19872e-26
-6.9481e-25
-4.44358e-28
-1.4239e-26
-8.74659e-30
-3.21866e-28
-1.58944e-31
-6.8801e-30
-2.6093e-33
-1.34737e-31
-3.73273e-35
-2.38314e-33
-4.4702e-37
-3.66544e-35
-4.29791e-39
-4.68435e-37
-3.12072e-41
-4.761e-39
-1.52528e-43
-3.68519e-41
-4.32552e-46
-1.98102e-43
-4.25937e-49
-6.33311e-46
-4.35404e-55
-7.81557e-49
-2.14033e-54
-1.66254e-18
2.44469e-18
-2.98403e-18
5.84624e-18
-3.51569e-19
2.08885e-18
-4.50069e-21
-1.3376e-19
-5.85592e-23
-3.13503e-21
-9.1841e-25
-5.56679e-23
-1.49125e-26
-9.59401e-25
-2.44103e-28
-1.58287e-26
-3.86367e-30
-2.71007e-28
-5.66871e-32
-4.50795e-30
-7.3563e-34
-6.96458e-32
-8.02212e-36
-9.48369e-34
-6.96169e-38
-1.08825e-35
-4.63268e-40
-1.02465e-37
-2.05994e-42
-7.16471e-40
-5.23611e-45
-3.48581e-42
-3.77792e-48
-1.06414e-44
-1.1873e-54
-1.26922e-47
-1.63516e-53
-1.88727e-16
2.41157e-16
-2.13978e-16
4.94846e-16
-1.4728e-17
8.76233e-17
-1.23954e-19
-5.81397e-18
-1.52951e-21
-7.94655e-20
-2.56691e-23
-1.50602e-21
-3.51192e-25
-4.67949e-23
-5.00347e-27
-5.57708e-25
-7.01145e-29
-7.59407e-27
-9.10316e-31
-1.085e-28
-1.0567e-32
-1.45315e-30
-1.05582e-34
-1.76396e-32
-8.45995e-37
-1.88019e-34
-5.09339e-39
-1.56446e-36
-2.1342e-41
-1.02716e-38
-5.14695e-44
-4.85555e-41
-2.68548e-47
-1.2553e-43
-4.30072e-54
-1.14817e-46
-3.46068e-53
-2.8879e-15
3.70177e-15
-1.73296e-15
3.43795e-15
-9.94625e-17
2.62689e-16
-1.15766e-18
-2.388e-17
-1.57749e-20
-6.84064e-19
-3.50544e-22
-1.19829e-20
-4.97565e-24
-5.55132e-22
-6.85856e-26
-1.06727e-23
-8.89477e-28
-1.22059e-25
-1.0653e-29
-1.62067e-27
-1.14756e-31
-2.03022e-29
-1.06282e-33
-2.32302e-31
-7.92842e-36
-2.30159e-33
-4.50897e-38
-1.91287e-35
-1.85131e-40
-1.2493e-37
-3.5905e-43
-5.62199e-40
-8.97242e-47
-1.41005e-42
-5.66849e-54
-4.07932e-46
-9.0385e-53
-5.32312e-15
1.23295e-14
-1.93278e-15
4.98908e-15
-1.7346e-16
1.02782e-16
-5.25237e-18
-1.54195e-17
-8.06403e-20
-3.75769e-18
-1.40528e-21
-6.0698e-20
-3.12629e-23
-6.07508e-22
-5.28737e-25
-2.7796e-23
-7.27585e-27
-6.90043e-25
-8.80086e-29
-1.18493e-26
-9.29628e-31
-1.62388e-28
-8.0756e-33
-1.86951e-30
-5.8297e-35
-1.74032e-32
-3.31635e-37
-1.3505e-34
-1.1914e-39
-8.50065e-37
-2.22772e-42
-3.66844e-39
-1.32849e-46
-8.13194e-42
-1.00409e-53
-3.16658e-46
-1.42468e-52
-1.39791e-15
1.13673e-14
-2.85576e-16
1.25961e-15
-5.76344e-17
2.6565e-16
-1.2863e-17
-6.01838e-18
-4.15949e-19
-8.35897e-18
-2.57334e-21
-6.98026e-19
-1.01489e-22
-2.71342e-21
-2.34122e-24
2.87924e-22
-3.9656e-26
6.41924e-25
-5.25141e-28
-3.26011e-26
-5.70849e-30
-8.30751e-28
-4.92584e-32
-1.38012e-29
-3.34245e-34
-1.60817e-31
-1.70877e-36
-1.1428e-33
-5.7461e-39
-3.59262e-36
-8.02899e-42
1.73401e-38
-5.55143e-47
1.58871e-40
-5.08804e-52
1.22502e-43
4.88061e-50
9.92374e-06
-4.5684e-05
2.31602e-05
-6.6401e-05
3.57715e-05
-6.50074e-05
4.81469e-05
-6.25808e-05
6.08531e-05
-6.28544e-05
7.41e-05
-6.48839e-05
8.79805e-05
-6.77064e-05
0.000102589
-7.09314e-05
0.000118054
-7.45107e-05
0.000134517
-7.83662e-05
0.000152172
-8.24985e-05
0.000171194
-8.67681e-05
0.000191825
-9.08657e-05
0.000214523
-9.46449e-05
0.000239702
-9.76778e-05
0.000267953
-9.87821e-05
0.000300508
-9.59777e-05
0.00033071
-7.92389e-05
0.000268525
-3.33937e-05
8.95675e-05
4.4605e-06
5.63092e-05
8.99816e-06
0.000107338
5.16612e-05
0.000470093
0.000109842
1.0033e-05
-5.5717e-05
2.25762e-05
-7.89442e-05
3.44357e-05
-7.68669e-05
4.62383e-05
-7.43834e-05
5.84944e-05
-7.51105e-05
7.13324e-05
-7.77218e-05
8.48141e-05
-8.11881e-05
9.90475e-05
-8.51648e-05
0.000114195
-8.96586e-05
0.00013044
-9.46112e-05
0.000148023
-0.000100081
0.000167182
-0.000105927
0.000188329
-0.000112013
0.000211974
-0.00011829
0.000238495
-0.000124198
0.000268073
-0.000128364
0.000284806
-0.000112926
0.000157114
-5.28574e-05
7.3816e-06
-6.9022e-06
9.78321e-06
2.76397e-08
1.51118e-05
2.02306e-06
4.57049e-05
1.72498e-05
0.000323245
0.000113842
1.00524e-05
-6.57694e-05
2.1768e-05
-9.06598e-05
3.27701e-05
-8.7869e-05
4.39239e-05
-8.55372e-05
5.56267e-05
-8.68134e-05
6.7917e-05
-9.00121e-05
8.08404e-05
-9.41115e-05
9.45215e-05
-9.8846e-05
0.000109152
-0.000104289
0.000124933
-0.000110392
0.000142123
-0.000117272
0.000161051
-0.000124856
0.000182137
-0.000133099
0.000205567
-0.00014172
0.000231892
-0.000150523
0.000246984
-0.000143516
0.000121204
-7.98768e-05
8.43829e-06
-9.25345e-06
1.3805e-06
-5.56682e-07
1.20735e-06
1.38753e-08
2.63316e-06
2.78926e-07
1.60483e-05
2.8902e-06
4.62696e-05
8.07297e-05
9.94455e-06
-7.5714e-05
2.07104e-05
-0.000101426
3.07983e-05
-9.79569e-05
4.1235e-05
-9.59739e-05
5.22715e-05
-9.78498e-05
6.38679e-05
-0.000101609
7.60679e-05
-0.000106311
8.90126e-05
-0.000111791
0.000102913
-0.000118189
0.000117958
-0.000125437
0.000134439
-0.000133753
0.000152761
-0.000143178
0.000173005
-0.000153342
0.000195116
-0.000163831
0.000216393
-0.000171805
0.000138632
-0.000129103
9.51045e-06
-1.51872e-05
6.85257e-07
-1.13334e-06
7.33024e-08
3.46771e-09
6.70037e-08
1.78971e-09
2.54601e-07
3.23882e-08
2.10527e-06
6.08349e-07
7.8909e-06
3.52807e-05
9.69911e-06
-8.54131e-05
1.94051e-05
-0.000111132
2.85399e-05
-0.000107092
3.81899e-05
-0.000105624
4.84394e-05
-0.000108099
5.91925e-05
-0.000112362
7.05004e-05
-0.000117619
8.25178e-05
-0.000123808
9.54631e-05
-0.000131135
0.000109496
-0.000139469
0.000125019
-0.000149276
0.000142329
-0.000160487
0.000160951
-0.000171964
0.000180797
-0.000183677
0.000167253
-0.000158318
1.50135e-05
-3.25741e-05
1.15417e-06
-1.83271e-06
3.00934e-09
-3.37533e-08
1.36236e-09
6.9136e-10
5.58896e-10
5.0888e-10
2.01983e-08
3.10059e-09
4.90353e-07
8.22028e-08
1.61574e-06
6.5284e-06
9.31214e-06
-9.47252e-05
1.78678e-05
-0.000119687
2.60236e-05
-0.000115247
3.48148e-05
-0.000114415
4.41557e-05
-0.00011744
5.39207e-05
-0.000122127
6.4173e-05
-0.000127872
7.50768e-05
-0.000134712
8.68401e-05
-0.000142898
9.96126e-05
-0.000152242
0.000113966
-0.000163629
0.000129736
-0.000176258
0.000146467
-0.000188694
0.000156163
-0.000193369
3.69247e-05
-9.99569e-05
1.75254e-06
-4.29695e-06
3.9426e-08
-1.8868e-07
-2.34229e-10
2.20029e-09
-4.24249e-10
4.65479e-10
-3.08035e-10
9.03148e-11
1.37563e-10
6.16476e-10
6.39854e-08
8.62322e-09
2.34641e-07
1.39564e-06
8.77568e-06
-0.000103501
1.61246e-05
-0.000127036
2.32882e-05
-0.000122411
3.1148e-05
-0.000122275
3.9467e-05
-0.000125759
4.81148e-05
-0.000130774
5.71664e-05
-0.000136923
6.67888e-05
-0.000144334
7.71533e-05
-0.000153263
8.84503e-05
-0.000163538
0.000101203
-0.000176382
0.000114649
-0.000189704
0.000129235
-0.000203274
0.000100919
-0.000175771
3.9624e-06
-1.65253e-05
1.96557e-07
-6.34874e-07
-1.49335e-09
2.90218e-09
-4.57114e-10
7.6607e-10
-8.4088e-11
5.11251e-11
-5.19284e-11
1.254e-11
7.13694e-11
1.08088e-10
1.22284e-09
1.47064e-09
2.09068e-08
2.02812e-07
8.10142e-06
-0.000111602
1.42207e-05
-0.000133155
2.0393e-05
-0.000128583
2.72592e-05
-0.000129141
3.44678e-05
-0.000132968
4.1901e-05
-0.000138208
4.9638e-05
-0.00014466
5.78232e-05
-0.00015252
6.65451e-05
-0.000161984
7.60238e-05
-0.000173017
8.61851e-05
-0.000186542
9.65102e-05
-0.000200023
0.000105521
-0.000212232
1.46214e-05
-8.69272e-05
5.75505e-07
-2.13223e-06
-1.66809e-09
-5.94525e-08
-6.81368e-10
1.46999e-09
-5.24576e-11
8.23704e-11
-9.28806e-12
4.37061e-12
-4.87977e-12
1.51345e-12
1.8735e-11
1.35448e-11
1.47928e-10
1.30922e-10
1.85152e-09
1.64036e-08
7.32802e-06
-0.00011893
1.22399e-05
-0.000138067
1.74438e-05
-0.000133787
2.3284e-05
-0.000134981
2.93342e-05
-0.000139018
3.54877e-05
-0.000144361
4.17945e-05
-0.000150967
4.83042e-05
-0.000159028
5.49278e-05
-0.000168605
6.1743e-05
-0.000179826
6.78728e-05
-0.000192658
7.4899e-05
-0.000206996
6.63266e-05
-0.000203603
1.76086e-06
-2.10973e-05
5.78641e-08
-4.36692e-07
-1.34343e-09
-1.76299e-10
-7.81158e-11
1.62634e-10
-4.48892e-12
5.60012e-12
-8.05289e-13
3.86872e-13
-3.31544e-13
2.32393e-13
2.98972e-12
1.34361e-12
1.79928e-11
1.11217e-11
2.04115e-10
1.03415e-09
6.51963e-06
-0.00012545
1.02716e-05
-0.000141818
1.45409e-05
-0.000138055
1.93398e-05
-0.000139778
2.41715e-05
-0.000143847
2.89132e-05
-0.000149099
3.35185e-05
-0.000155567
3.786e-05
-0.000163358
4.16236e-05
-0.000172341
4.47343e-05
-0.000182877
4.66652e-05
-0.000194462
4.91455e-05
-0.000209002
1.57969e-05
-0.000148235
3.39322e-07
-4.26514e-06
4.25221e-10
-9.80622e-08
-1.3467e-10
3.85395e-10
-4.47462e-12
2.79784e-11
-2.48878e-13
1.04094e-12
-6.31878e-14
1.71046e-13
-3.19364e-14
9.15342e-14
2.07402e-13
1.6146e-13
5.09031e-13
1.70866e-12
2.59838e-11
9.85659e-11
5.69817e-06
-0.000131148
8.25631e-06
-0.000144357
1.15556e-05
-0.000141334
1.52104e-05
-0.00014341
1.8621e-05
-0.000147229
2.16271e-05
-0.000152067
2.40665e-05
-0.000157956
2.5789e-05
-0.000164957
2.67738e-05
-0.000173039
2.78427e-05
-0.000183362
3.07871e-05
-0.000185203
3.06536e-05
-0.000142697
-3.91985e-07
-4.73017e-05
1.20086e-08
-4.0915e-06
2.56488e-10
-8.78143e-08
-4.65154e-12
6.45008e-10
-5.79397e-14
2.30679e-11
-1.26273e-14
9.00949e-13
-8.26859e-15
1.35785e-13
-4.63331e-15
9.59533e-14
4.08124e-15
5.31842e-14
5.37454e-13
2.36676e-13
3.10747e-12
1.5375e-11
4.70669e-06
-0.000135855
5.85609e-06
-0.000145292
8.02769e-06
-0.000143271
1.03206e-05
-0.000145428
1.21537e-05
-0.000148725
1.34296e-05
-0.000152922
1.41631e-05
-0.000153934
1.45663e-05
-0.00014032
1.53273e-05
-0.000114983
1.57798e-05
-7.75028e-05
1.36105e-05
-1.56716e-05
5.18948e-06
-1.12006e-06
4.56289e-08
-8.37412e-08
-1.29767e-07
-5.04279e-06
6.53825e-09
-6.49427e-07
7.32666e-10
6.1349e-09
1.03698e-11
7.41693e-10
2.0204e-14
1.07955e-11
6.33931e-16
1.22295e-13
-3.49896e-16
7.4323e-14
1.99023e-15
3.78347e-14
9.54323e-14
2.75227e-14
3.12063e-13
1.95432e-12
3.14225e-06
-8.67277e-05
2.77422e-06
-7.93527e-05
3.72711e-06
-7.60683e-05
4.5445e-06
-6.88148e-05
5.01904e-06
-5.8956e-05
5.27137e-06
-4.70522e-05
5.52892e-06
-2.56206e-05
5.38735e-06
-6.05539e-07
4.67133e-06
-2.3345e-08
7.01034e-06
-1.33622e-09
1.20785e-06
-5.86142e-11
8.96738e-08
-1.49899e-09
6.89955e-09
-3.10497e-10
3.55529e-07
-3.36782e-06
6.52893e-08
-1.48228e-06
7.61813e-09
4.4468e-08
1.85477e-10
8.08944e-09
1.49527e-12
1.92806e-10
-1.50295e-14
1.53995e-12
1.89332e-16
3.08762e-14
4.50039e-16
1.71678e-14
6.84323e-15
8.16486e-15
3.51011e-14
1.68362e-13
5.35661e-07
5.99107e-23
2.89752e-07
2.63845e-22
4.69687e-07
1.08977e-22
5.6962e-07
1.18627e-21
6.03462e-07
-8.76137e-20
8.18997e-07
-8.67489e-18
6.30258e-07
-4.12932e-16
2.47182e-08
-9.74566e-15
1.3736e-09
-4.19181e-13
4.86921e-11
-1.27554e-11
2.89693e-11
-4.61893e-11
1.41779e-10
-1.52399e-09
1.41294e-09
-1.19574e-09
3.38657e-07
-2.04058e-09
5.61254e-07
-1.33297e-06
1.30004e-08
1.15812e-07
2.4727e-10
2.06234e-08
1.34763e-12
4.37556e-10
-7.87261e-15
2.87848e-12
-2.47654e-16
9.00884e-15
-6.16765e-17
4.64156e-15
1.83863e-16
1.84303e-15
7.05326e-15
8.8763e-15
-1.28365e-24
1.77203e-22
-1.0446e-23
7.69475e-22
-7.96361e-24
2.96616e-22
-1.37596e-22
2.35306e-21
1.41042e-21
-8.91617e-20
2.03752e-19
-8.88882e-18
1.28493e-17
-4.26655e-16
4.11895e-16
-1.01906e-14
2.20692e-14
-4.41531e-13
2.08398e-12
-1.48587e-11
1.08814e-10
-1.54359e-10
7.08606e-10
-2.17367e-09
1.31066e-09
-1.4723e-09
2.38074e-09
-2.82232e-09
2.92861e-07
-1.24023e-06
-5.83617e-09
1.46358e-07
-2.43344e-10
1.50463e-08
-2.33383e-12
1.09127e-10
-8.01138e-15
5.73034e-13
-2.48007e-16
1.03092e-15
-6.40215e-17
9.62491e-16
-5.83336e-17
2.614e-16
1.27155e-15
2.80919e-16
-3.15449e-24
2.07956e-22
-3.26822e-23
8.96708e-22
-2.03018e-23
2.23277e-22
-2.31393e-22
-3.54417e-21
1.52331e-20
-1.99191e-19
2.02987e-18
-2.30143e-17
1.23588e-16
-1.10348e-15
1.23949e-14
-2.85591e-14
6.36493e-13
-1.45317e-12
2.41608e-11
-4.78285e-11
4.65192e-10
-1.21068e-09
2.9117e-09
-1.03184e-08
8.65214e-09
-9.80596e-09
3.79218e-08
-3.21634e-08
4.90311e-08
-3.54399e-07
-1.26923e-08
1.15189e-07
-9.23654e-11
2.45614e-09
-5.01841e-13
1.72403e-11
-1.03317e-15
7.40014e-14
-1.04598e-16
1.04122e-16
-2.05182e-17
1.64994e-16
-2.55854e-17
3.41166e-17
1.28878e-16
-4.94373e-17
-1.68942e-24
1.27198e-22
-1.64144e-23
5.7195e-22
-6.12348e-24
-1.47506e-22
1.86821e-22
-1.18486e-20
6.11779e-20
-1.89185e-18
5.5798e-18
-1.36964e-16
4.10477e-16
-3.9919e-15
4.04738e-14
-1.11193e-13
1.61762e-12
-4.41713e-12
5.35275e-11
-1.22618e-10
1.59189e-09
-4.66731e-09
-1.41904e-09
-1.13046e-07
-1.4092e-09
-1.81818e-07
-3.64391e-08
-6.85568e-08
-1.11363e-07
-2.70241e-09
-2.13859e-09
4.99567e-08
-1.51646e-11
3.34045e-10
-6.68539e-14
2.10858e-12
-1.27003e-16
7.27328e-15
-2.98626e-17
5.03977e-18
-4.4569e-18
2.43604e-17
-5.05512e-18
4.01961e-18
1.07416e-17
-1.37392e-17
3.29597e-24
2.7785e-23
-1.63238e-24
1.45283e-22
-6.0822e-24
-3.43004e-22
-2.38367e-21
-5.64237e-20
-4.06674e-19
-5.84859e-18
-1.90881e-17
-2.90335e-16
3.85729e-15
-1.00859e-14
3.47876e-13
-4.73565e-13
1.26963e-11
-1.56246e-11
2.08168e-10
-3.22238e-10
-9.75548e-10
-4.24429e-09
-1.24147e-07
-1.23783e-07
-1.39352e-07
-1.13771e-07
-1.33612e-07
-2.33537e-08
-4.69261e-08
2.57193e-08
-3.01532e-10
3.339e-09
-1.92569e-12
3.44297e-11
-6.7614e-15
1.90138e-13
-7.65862e-18
5.48434e-16
-5.95899e-18
2.03274e-18
-7.47645e-19
3.86217e-18
-7.62546e-19
4.23503e-19
8.49138e-19
-1.98212e-18
2.62682e-24
1.05354e-25
-2.9545e-23
-7.67828e-24
-7.6461e-23
-7.4484e-22
-1.8208e-20
-8.69071e-20
-3.54519e-18
-6.97415e-18
1.45083e-18
-3.97382e-16
6.5122e-15
-1.72458e-14
8.59722e-14
-5.59861e-13
4.90548e-13
-2.46753e-11
4.87868e-11
-4.71151e-10
-2.87896e-09
-7.87334e-10
-1.1463e-07
-7.56879e-12
-2.04856e-07
-4.80733e-11
-2.88627e-08
-2.75929e-10
-3.23892e-09
1.9301e-10
-3.23162e-11
1.33082e-10
-1.75796e-13
2.30689e-12
-5.32254e-16
1.27061e-14
-1.34023e-18
1.81574e-17
-1.4542e-18
1.41858e-18
-1.03224e-19
1.33622e-18
-9.46703e-20
4.08493e-20
5.96352e-20
-2.18113e-19
-2.20921e-25
3.67793e-25
-2.35573e-24
-5.54347e-24
-1.68795e-22
-6.22074e-22
-2.67663e-20
-6.44211e-20
-2.65945e-18
-4.60549e-18
-1.37778e-16
-3.31501e-16
-5.516e-15
-1.06458e-14
-4.74164e-13
-6.43106e-14
-9.02867e-11
-6.4986e-16
-1.79172e-10
-9.76075e-15
-6.19016e-13
-9.53591e-14
-7.88706e-12
-3.18077e-13
-5.40709e-11
-2.01906e-12
-3.27871e-10
-1.85922e-12
-1.32389e-10
1.36061e-12
-2.26446e-12
3.03744e-12
-1.23732e-14
5.37015e-14
-1.75319e-17
3.5349e-16
-1.1021e-18
7.22849e-19
-8.58405e-19
1.01334e-18
-1.26576e-20
7.72855e-19
-1.02654e-20
3.62389e-21
3.64626e-21
-1.96019e-20
-1.43261e-25
8.76826e-25
-3.33658e-23
2.76791e-23
-1.02267e-21
3.67226e-22
-6.8049e-20
2.60523e-21
-5.02387e-18
9.89923e-21
-1.00307e-15
1.42304e-20
-6.57957e-15
-3.6249e-19
-2.29465e-17
-8.71747e-18
-6.47249e-16
-4.31497e-17
-8.39204e-15
-7.84066e-16
-9.49543e-14
-9.18451e-15
-3.74636e-13
-4.10187e-14
-2.83513e-12
-1.49895e-13
-4.41527e-12
-1.86263e-13
-3.10233e-12
-1.76566e-15
-5.32458e-14
5.57033e-14
-3.48526e-16
8.14085e-16
-7.53055e-19
4.32922e-18
-9.02055e-19
3.15019e-19
-6.83821e-19
6.68652e-19
-1.4422e-21
4.10551e-19
-8.92558e-22
2.58512e-22
1.93297e-22
-1.47229e-21
1.28443e-24
6.49616e-25
3.47679e-23
2.07917e-23
3.79563e-22
2.83337e-22
1.99399e-21
2.10127e-21
3.76187e-21
8.63042e-21
-1.11015e-20
1.47412e-20
-3.44126e-19
-2.94654e-20
-8.39057e-18
-7.07955e-19
-4.18041e-17
-1.06384e-17
-7.87646e-16
-5.58168e-17
-9.94124e-15
-9.58335e-17
-1.55321e-13
-1.54994e-16
-3.11838e-13
-8.80153e-17
-5.05407e-14
-2.24252e-16
-5.215e-14
-1.46649e-16
-8.09289e-16
6.70211e-16
-4.63449e-18
1.26865e-17
-2.94767e-19
6.78065e-20
-4.89714e-19
1.21661e-19
-3.29699e-19
2.1871e-19
-1.10224e-22
1.00271e-19
-6.28797e-23
1.20038e-23
8.90474e-24
-9.3455e-23
1.09818e-24
2.28655e-25
3.04781e-23
7.42446e-24
3.4746e-22
1.03286e-22
1.9693e-21
7.84626e-22
4.40277e-21
3.25684e-21
-1.08784e-20
4.66552e-21
-2.58717e-20
-1.87819e-20
-1.22668e-18
-4.11853e-19
-2.65201e-17
-9.25323e-18
-9.62488e-17
-7.70596e-17
-9.77492e-17
-1.88397e-16
-9.75892e-17
-1.59739e-16
-1.11039e-16
-9.13275e-17
-2.88812e-16
-1.67034e-17
-6.58509e-16
-5.96545e-19
-1.23181e-17
5.98955e-18
-7.82538e-20
2.07093e-19
-7.11262e-20
2.0352e-21
-1.01157e-19
1.19925e-20
-5.58154e-20
1.64671e-20
-5.28091e-24
5.2744e-21
-3.28298e-24
3.88327e-25
3.55125e-25
-5.04171e-24
4.29238e-25
-2.39801e-32
1.21546e-23
-5.68912e-30
1.41808e-22
-6.57631e-28
8.11273e-22
-4.97547e-26
1.51843e-21
-2.74881e-24
-9.00278e-21
-1.17388e-22
-2.13766e-20
-5.64518e-21
-8.39292e-19
-9.91733e-20
-2.6038e-17
-3.12889e-18
-1.62404e-16
-4.91752e-17
-3.06115e-16
-1.61701e-16
-2.86954e-16
-2.25649e-16
-1.18861e-16
-1.77039e-16
-2.13535e-17
-8.46535e-17
-6.47339e-18
-5.75316e-18
-2.07982e-19
1.7609e-20
-2.67216e-21
4.85025e-21
-4.965e-21
6.59682e-23
-5.76617e-21
2.40879e-22
-2.5113e-21
2.7776e-22
-1.84006e-25
7.2946e-23
-1.44618e-25
1.10985e-26
1.21823e-26
-2.31708e-25
-2.38502e-32
-1.29879e-34
-5.68143e-30
-3.154e-32
-6.59577e-28
-3.73566e-30
-5.01237e-26
-2.90592e-28
-2.78233e-24
-1.65997e-26
-1.19432e-22
-7.38537e-25
-5.75273e-21
-2.10987e-23
-1.09334e-19
-3.97035e-22
-6.18061e-18
-1.14668e-20
-1.03952e-16
-3.08051e-19
-3.22851e-16
-2.75793e-18
-4.10965e-16
-7.65067e-18
-3.41768e-16
-4.47315e-18
-1.20751e-16
-3.24751e-18
-5.061e-19
-2.79125e-19
-7.30559e-20
2.11819e-21
-7.16785e-23
5.61933e-21
-1.43541e-22
9.64237e-25
-1.51665e-22
3.54351e-24
-5.71883e-23
3.66301e-24
-5.91588e-27
1.35513e-24
-5.14639e-27
2.88842e-28
3.60907e-28
-9.09763e-27
-1.29321e-34
-5.57813e-37
-3.15855e-32
-1.39285e-34
-3.75718e-30
-1.7203e-32
-2.93514e-28
-1.40206e-30
-1.68423e-26
-8.42677e-29
-7.52972e-25
-3.96598e-27
-2.17844e-23
-1.2054e-25
-4.22105e-22
-2.53823e-24
-1.74078e-20
-8.04605e-23
-5.42856e-19
-2.40947e-21
-4.05218e-18
-2.25902e-20
-9.87009e-18
-6.11602e-20
-8.10008e-18
-6.83446e-20
-1.91332e-18
-4.50089e-20
-2.22926e-19
-7.52002e-21
-7.10972e-20
-5.21916e-22
-1.68251e-24
3.6103e-21
-4.40751e-24
4.7322e-25
-3.33185e-24
9.18727e-26
-1.32498e-24
5.3977e-26
-1.69858e-28
2.71873e-26
-1.51432e-28
6.47671e-30
9.21949e-30
-3.05848e-28
-5.57746e-37
-6.7312e-41
-1.39834e-34
-1.77934e-38
-1.73415e-32
-2.33117e-36
-1.41925e-30
-2.02053e-34
-8.56747e-29
-1.29685e-32
-4.05088e-27
-6.55447e-31
-1.23254e-25
-1.8503e-29
-2.67582e-24
-4.89457e-28
-1.28659e-22
-1.46e-26
-4.50369e-21
-4.33408e-25
-3.28973e-20
-1.2417e-23
-7.0665e-20
-1.36151e-22
-7.27897e-20
-4.28833e-22
-3.38367e-20
-5.07046e-22
-9.31686e-21
-3.10377e-22
-7.51685e-21
-3.50925e-23
5.72368e-24
4.78383e-23
-1.92919e-25
-8.8045e-25
-7.0522e-26
2.28641e-27
-2.66987e-26
6.83731e-28
-4.14426e-30
4.48928e-28
-3.80984e-30
1.23631e-31
2.03148e-31
-8.82142e-30
-6.72781e-41
-3.3863e-44
-1.78395e-38
-9.94396e-42
-2.34413e-36
-1.44791e-39
-2.038e-34
-1.39433e-37
-1.31231e-32
-9.95091e-36
-6.65544e-31
-5.60363e-34
-1.87584e-29
-1.71253e-32
-5.08259e-28
-5.42773e-31
-1.52411e-26
-1.7819e-29
-7.1501e-25
-5.4362e-28
-2.84083e-23
-1.87285e-26
-2.6813e-22
-3.2535e-25
-6.89314e-22
-1.53617e-24
-7.44328e-22
-2.34873e-24
-3.78688e-22
-1.71857e-24
-2.72582e-23
-3.20031e-25
7.13392e-25
2.37757e-28
-3.60624e-27
-8.05286e-26
-1.06057e-27
1.97932e-29
-4.41885e-28
7.28929e-30
-8.56667e-32
6.06878e-30
-8.18209e-32
2.00861e-33
3.87547e-33
-2.1881e-31
-3.19604e-44
-2.00754e-48
-9.44857e-42
-6.25291e-46
-1.38372e-39
-9.59044e-44
-1.34014e-37
-9.74533e-42
-9.61928e-36
-7.36919e-40
-5.44847e-34
-4.42008e-38
-1.76698e-32
-2.04084e-36
-5.60449e-31
-7.17238e-35
-1.84118e-29
-2.60473e-33
-7.50134e-28
-8.43163e-32
-4.49233e-26
-2.90172e-30
-7.32439e-25
-8.8688e-29
-2.63341e-24
-1.02364e-27
-3.36901e-24
-3.3415e-27
-2.09934e-24
-3.99938e-27
-7.49396e-26
-2.37127e-27
-5.79034e-27
-2.4224e-28
-6.16616e-29
2.21963e-28
-1.27776e-29
2.90709e-31
-5.98172e-30
6.56971e-32
-1.50032e-33
6.73674e-32
-1.50081e-33
2.78479e-35
6.41345e-35
-4.67938e-33
-2.0074e-48
-1.44937e-52
-6.27293e-46
-4.95957e-50
-9.65307e-44
-8.35609e-48
-9.84175e-42
-9.34019e-46
-7.46753e-40
-7.78435e-44
-4.49472e-38
-5.16046e-42
-2.08579e-36
-2.64673e-40
-7.38127e-35
-1.03936e-38
-2.67941e-33
-4.21107e-37
-8.80543e-32
-1.5289e-35
-5.4519e-30
-5.08585e-34
-2.33141e-28
-1.81627e-32
-2.33075e-27
-5.58053e-31
-6.22902e-27
-5.67652e-30
-7.12131e-27
-1.42517e-29
-4.52017e-27
-1.22929e-29
-1.5063e-27
-3.0881e-30
-1.82327e-30
1.00271e-29
-1.34946e-31
1.20453e-32
-6.63967e-32
5.50572e-34
-2.23239e-35
6.32672e-34
-2.35524e-35
3.30768e-37
9.22905e-37
-8.65056e-35
-1.44917e-52
-2.02182e-56
-4.97396e-50
-7.68376e-54
-8.40565e-48
-1.4374e-51
-9.42403e-46
-1.78549e-49
-7.87841e-44
-1.6562e-47
-5.23913e-42
-1.22468e-45
-2.69912e-40
-7.02163e-44
-1.06637e-38
-3.10814e-42
-4.32025e-37
-1.42303e-40
-1.57369e-35
-5.84936e-39
-5.97874e-34
-2.1776e-37
-4.27464e-32
-8.46755e-36
-1.85936e-30
-3.3467e-34
-1.50583e-29
-5.21368e-33
-2.87557e-29
-1.81881e-32
-2.44646e-29
-1.89975e-32
-1.82493e-30
-7.03204e-33
-9.51943e-32
-9.25023e-36
-1.36232e-33
4.22372e-34
-6.22463e-34
4.7884e-36
-2.8249e-37
5.27732e-36
-3.16535e-37
3.56282e-39
1.15889e-38
-1.38654e-36
-2.02181e-56
-7.36299e-62
-7.70398e-54
-3.14419e-59
-1.44508e-51
-6.6018e-57
-1.79985e-49
-9.21018e-55
-1.67405e-47
-9.60789e-53
-1.24121e-45
-8.00462e-51
-7.12409e-44
-4.90303e-49
-3.17899e-42
-2.59878e-47
-1.45483e-40
-1.35166e-45
-5.995e-39
-6.3301e-44
-2.26336e-37
-2.6901e-42
-1.6713e-35
-1.06073e-40
-1.14974e-33
-4.16848e-39
-1.48815e-32
-1.74774e-37
-3.5917e-32
-3.86709e-36
-3.31123e-32
-1.83943e-35
-1.10616e-33
-1.99369e-35
-1.03545e-33
-4.62219e-36
-1.48848e-35
1.73515e-36
-5.18007e-36
3.77383e-38
-3.42459e-39
3.63952e-38
-3.89093e-39
4.16207e-41
1.27292e-40
-1.93265e-38
-7.36195e-62
-1.04109e-65
-3.14931e-59
-5.08139e-63
-6.6238e-57
-1.21796e-60
-9.25682e-55
-1.93893e-58
-9.67375e-53
-2.30875e-56
-8.07414e-51
-2.19735e-54
-4.97404e-49
-1.52012e-52
-2.64891e-47
-9.56713e-51
-1.37938e-45
-5.70745e-49
-6.47421e-44
-3.07307e-47
-2.75899e-42
-1.50592e-45
-1.1763e-40
-6.80165e-44
-7.69752e-39
-3.01732e-42
-7.07378e-37
-1.48579e-40
-1.59688e-35
-4.92476e-39
-5.45961e-35
-3.57258e-38
-5.27247e-35
-5.20831e-38
-2.38758e-36
-2.06398e-38
-1.20153e-37
1.61507e-40
-3.55535e-38
2.50186e-40
-4.22779e-41
2.03241e-40
-4.58955e-41
5.04998e-43
1.2328e-42
-2.35116e-40
-1.01884e-65
-2.306e-70
-4.9889e-63
-1.29248e-67
-1.19917e-60
-3.5455e-65
-1.9144e-58
-6.46128e-63
-2.28599e-56
-8.81974e-61
-2.18183e-54
-9.64059e-59
-1.54195e-52
-8.61941e-57
-9.72151e-51
-6.2797e-55
-5.80574e-49
-4.3391e-53
-3.13163e-47
-2.71449e-51
-1.53758e-45
-1.54945e-49
-6.96741e-44
-8.17021e-48
-4.48642e-42
-4.08406e-46
-5.41365e-40
-2.28622e-44
-2.12293e-38
-1.12456e-42
-1.09182e-37
-1.42305e-41
-1.06768e-37
-3.34826e-41
-2.28003e-39
-2.06218e-41
-1.04769e-39
-6.68962e-45
-2.14273e-40
1.82673e-42
-5.71325e-43
4.28893e-43
-4.74386e-43
6.15005e-45
1.06239e-44
-2.50643e-42
-2.30599e-70
-4.73398e-76
-1.29479e-67
-3.10154e-73
-3.55845e-65
-9.94428e-71
-6.49687e-63
-2.11874e-68
-8.88471e-61
-3.3837e-66
-9.72944e-59
-4.33162e-64
-8.71672e-57
-4.54254e-62
-6.36688e-55
-3.88968e-60
-4.40266e-53
-3.15948e-58
-2.75857e-51
-2.32947e-56
-1.57707e-49
-1.57019e-54
-8.32992e-48
-9.79686e-53
-4.86158e-46
-5.714e-51
-6.585e-44
-3.18127e-49
-4.77535e-42
-1.8634e-47
-4.46474e-41
-1.14272e-45
-6.83231e-41
-2.12171e-44
-2.31775e-41
-5.66202e-44
-5.58148e-42
-1.64221e-44
-1.2837e-42
3.21472e-45
-8.35184e-45
9.07824e-45
-4.97618e-45
7.68799e-47
8.27369e-47
-2.35196e-44
-4.73373e-76
-2.40624e-80
-3.10625e-73
-1.88195e-77
-9.97526e-71
-7.2057e-75
-2.1287e-68
-1.83381e-72
-3.40496e-66
-3.50025e-70
-4.36565e-64
-5.3599e-68
-4.58621e-62
-6.72976e-66
-3.92698e-60
-6.8901e-64
-3.20035e-58
-6.75631e-62
-2.36253e-56
-5.99236e-60
-1.59483e-54
-4.86703e-58
-9.96541e-53
-3.66555e-56
-5.82275e-51
-2.58545e-54
-3.72234e-49
-1.72069e-52
-5.06209e-47
-1.1728e-50
-6.39242e-45
-9.53312e-49
-9.94786e-44
-2.95983e-47
-1.77477e-43
-1.22568e-46
-1.77193e-44
-6.7199e-47
-7.2384e-45
7.02987e-48
-9.96634e-47
1.93536e-47
-5.13878e-47
8.19395e-49
6.01348e-49
-1.95322e-46
-2.40623e-80
-7.77967e-86
-1.88435e-77
-7.50973e-83
-7.22448e-75
-3.54096e-80
-1.84099e-72
-1.10928e-77
-3.51848e-70
-2.60727e-75
-5.3946e-68
-4.91983e-73
-6.64537e-66
-7.3658e-71
-6.99111e-64
-9.67493e-69
-6.82649e-62