/*--------------------------------*- C++ -*----------------------------------*\
| =========                 |                                                 |
| \\      /  F ield         | OpenFOAM: The Open Source CFD Toolbox           |
|  \\    /   O peration     | Version:  5.x                                   |
|   \\  /    A nd           | Web:      www.OpenFOAM.org                      |
|    \\/     M anipulation  |                                                 |
\*---------------------------------------------------------------------------*/
FoamFile
{
    version     2.0;
    format      ascii;
    class       volScalarField;
    location    "0.15";
    object      p;
}
// * * * * * * * * * * * * * * * * * * * * * * * * * * * * * * * * * * * * * //

dimensions      [1 -1 -2 0 0 0 0];

internalField   nonuniform List<scalar> 
2268
(
2499.29
2503.65
2498.9
2487.97
2473.25
2455
2432.62
2405.68
2373.97
2337.48
2296.7
2252.97
2208.99
2169.68
2143.55
2144.58
2194.6
2328.97
2573.64
2950.31
3411.11
3809.5
4064.22
2439.13
2443.42
2438.58
2427.64
2412.9
2394.59
2372.09
2344.99
2313.02
2276.14
2234.8
2190.26
2145.08
2103.98
2075.16
2071.99
2114.84
2228.71
2452.14
2809.95
3288.62
3747.77
4096.98
2377.65
2381.81
2376.81
2365.83
2351.07
2332.62
2309.9
2282.46
2249.98
2212.34
2169.9
2123.73
2076.15
2031.47
1997.31
1986.05
2016.63
2115.39
2317.23
2645.93
3108.3
3624.54
4104.45
2314.88
2318.86
2313.62
2302.58
2287.76
2269.13
2246.08
2218.14
2184.9
2146.15
2102.07
2053.51
2002.35
1952.37
1910.3
1887.19
1900.38
1975.77
2148.91
2449.65
2893.15
3434.2
4030.06
2250.86
2254.6
2249.08
2237.94
2223.03
2204.17
2180.69
2152.09
2117.88
2077.67
2031.47
1979.76
1923.94
1867.02
1814.59
1775.86
1765.82
1808.6
1940.72
2200.61
2621.06
3170.88
3841.77
2185.61
2189.08
2183.23
2171.96
2156.94
2137.78
2113.8
2084.41
2049
2007.04
1958.26
1902.74
1841.25
1775.87
1710.76
1652.75
1613.45
1613.43
1687.81
1878.7
2248.96
2800.66
3518.13
2119.16
2122.3
2116.07
2104.64
2089.49
2070.01
2045.44
2015.13
1978.35
1934.37
1882.62
1822.71
1754.69
1679.56
1599.71
1519
1444.72
1391.58
1387.81
1462.17
1713.23
2240.09
2976.63
2051.6
2054.25
2047.62
2036.01
2020.71
2000.86
1975.63
1944.3
1905.99
1859.76
1804.72
1739.97
1664.73
1578.84
1482.58
1376.5
1262.36
1143.83
1030.21
923.022
931.026
1402.91
2098.27
-2.20469
-2.22978
-2.24446
-2.22913
-2.18492
-2.1171
-2.03526
-1.94742
-1.85975
-1.77641
-1.69997
-1.63183
-1.57255
-1.52232
-1.48099
-1.44837
-1.42416
-1.40818
-1.40021
-2.26326
-2.2927
-2.30962
-2.2941
-2.24832
-2.17892
-2.09563
-2.00664
-1.91815
-1.83428
-1.75752
-1.6892
-1.62986
-1.57962
-1.5383
-1.50573
-1.48155
-1.46559
-1.45763
-2.32495
-2.35997
-2.38044
-2.3644
-2.31626
-2.24367
-2.15745
-2.06614
-1.97602
-1.89109
-1.81369
-1.74506
-1.68558
-1.63533
-1.59406
-1.56157
-1.53747
-1.52155
-1.51362
-2.38969
-2.43278
-2.45851
-2.44119
-2.38903
-2.3114
-2.22065
-2.12583
-2.03326
-1.94675
-1.86844
-1.79933
-1.73969
-1.68944
-1.64825
-1.61589
-1.5919
-1.57607
-1.56818
-2.461
-2.51353
-2.54575
-2.52542
-2.46695
-2.3821
-2.28509
-2.18554
-2.0897
-2.00115
-1.92166
-1.85198
-1.79215
-1.74192
-1.70087
-1.66869
-1.64485
-1.62914
-1.62132
-2.54417
-2.60568
-2.64471
-2.6183
-2.55042
-2.45573
-2.35056
-2.24502
-2.14516
-2.05415
-1.97328
-1.90294
-1.84296
-1.79276
-1.75189
-1.71997
-1.69634
-1.68078
-1.67304
-2.65811
-2.71664
-2.75818
-2.72133
-2.6399
-2.5322
-2.41677
-2.30397
-2.19939
-2.10555
-2.02315
-1.95213
-1.89204
-1.84195
-1.8013
-1.76977
-1.74639
-1.731
-1.72335
-2.8147
-2.85182
-2.89055
-2.83583
-2.73579
-2.61138
-2.48342
-2.3621
-2.25211
-2.15518
-2.07116
-1.99946
-1.93938
-1.88945
-1.84909
-1.81809
-1.79498
-1.77982
-1.77229
1944.32
1945.99
1938.86
1926.96
1911.31
1890.82
1864.46
1831.37
1790.45
1740.4
1679.75
1606.73
1519.22
1414.94
1291.15
1143.49
960.237
713.778
385.004
131.032
202.041
371.017
412.916
1794.05
1794.51
1786.61
1774.3
1758.09
1736.54
1708.48
1672.8
1628
1572.23
1503.24
1417.85
1311.88
1180.78
1019.39
813.416
530.592
193.346
29.9077
20.8154
34.9762
74.6882
104.655
1640.24
1639.38
1630.72
1618.07
1601.29
1578.69
1548.97
1510.81
1462.29
1401.04
1324.05
1226.59
1102.82
948.467
754.341
487.901
164.2
16.5973
1.40643
1.75336
3.40856
10.1641
47.0674
1483.72
1481.51
1472.22
1459.34
1442.05
1418.53
1387.44
1347.2
1295.53
1229.69
1145.83
1037.45
899.105
727.676
499.025
191.86
17.3681
0.00254282
-1.56721
-1.55314
-1.31647
-0.657015
4.20373
1325.32
1321.81
1312.11
1299.11
1281.47
1257.3
1225.29
1183.65
1129.83
1060.9
971.765
854.877
707.672
518.506
249.116
25.766
0.560132
-1.57924
-1.80734
-1.82462
-1.78667
-1.88284
-1.62504
1165.9
1161.27
1151.4
1138.43
1120.62
1096.19
1063.87
1021.69
967.073
896.981
804.612
684.025
533.816
320.887
58.8624
1.81074
-1.21045
-1.66943
-1.69326
-1.68842
-1.608
-1.43275
-1.29434
1006.31
1000.72
990.966
978.158
960.419
936.157
904.19
862.445
808.646
739.408
646.848
529.979
377.1
146.729
5.70942
-0.903372
-1.59758
-1.58896
-1.56998
-1.50953
-1.3635
-1.02954
-0.721961
847.199
840.822
831.458
818.953
801.576
777.964
747.06
706.801
655.497
589.005
500.861
394.399
234.772
23.5046
-0.28786
-1.49753
-1.58745
-1.55004
-1.5027
-1.40018
-1.23488
-0.945482
-0.621016
689.379
682.422
673.699
661.624
644.895
622.35
593.075
555.163
507.488
445.21
365.447
268.772
112.214
1.81117
-1.08745
-1.57831
-1.50183
-1.52459
-1.4823
-1.39234
-1.24704
-1.03099
-0.771541
533.752
526.317
518.397
506.79
490.87
469.574
442.089
406.715
363.055
306.607
235.939
145.56
21.7922
-0.890714
-1.24692
-1.37265
-1.47775
-1.53855
-1.52344
-1.46368
-1.34824
-1.18776
-0.996877
380.108
372.128
365.13
354.016
339.164
319.515
294.289
261.541
222.222
174.433
116.306
49.5046
0.138306
-1.19686
-1.00934
-1.19886
-1.51384
-1.6218
-1.63947
-1.59794
-1.50468
-1.37979
-1.23548
228.111
219.137
213.377
202.917
189.485
172.266
151.053
121.264
89.3812
60.0126
29.8962
9.62085
-1.16917
-0.875667
-1.07032
-1.37097
-1.69563
-1.82248
-1.83368
-1.78731
-1.70152
-1.5943
-1.47975
87.1106
78.1831
75.1421
67.8616
58.8697
48.5406
37.776
21.2046
10.5714
0.508882
-3.4404
-3.53098
-3.37381
-2.67888
-2.14901
-1.98973
-2.18671
-2.16322
-2.10083
-2.02506
-1.92512
-1.82048
-1.72037
9.95162
6.90652
6.09015
4.03202
1.52116
-1.15476
-2.61292
-2.92073
-3.24695
-3.57873
-3.70051
-3.85665
-3.8568
-3.92064
-3.32764
-3.10304
-2.99556
-2.62188
-2.43016
-2.28966
-2.16034
-2.04644
-1.94958
-2.59496
-2.60017
-2.63728
-2.69414
-2.77716
-2.87808
-2.9322
-3.05813
-3.28847
-3.59488
-3.91573
-4.26329
-4.45447
-4.48901
-4.40761
-4.69532
-3.776
-3.07466
-2.77092
-2.55028
-2.38702
-2.26075
-2.16311
-2.71967
-2.73101
-2.75904
-2.80211
-2.86217
-2.93546
-3.01708
-3.14302
-3.348
-3.6719
-4.13623
-4.69935
-5.07678
-5.04523
-5.32183
-5.48285
-4.15838
-3.42479
-3.04058
-2.77053
-2.58824
-2.45484
-2.35771
-2.83519
-2.8466
-2.86752
-2.89982
-2.94422
-3.00123
-3.07665
-3.19162
-3.37847
-3.7153
-4.26634
-5.00605
-5.61051
-5.53806
-5.89296
-5.46004
-4.25737
-3.60009
-3.20248
-2.93242
-2.7531
-2.62357
-2.53206
-2.94159
-2.94983
-2.96507
-2.98836
-3.02035
-3.06291
-3.1222
-3.21184
-3.3621
-3.66364
-4.21065
-4.97169
-5.57884
-5.64509
-5.51656
-4.94533
-4.09197
-3.59912
-3.26679
-3.03907
-2.88221
-2.7677
-2.68733
-3.03996
-3.04529
-3.0557
-3.07143
-3.09296
-3.1218
-3.16188
-3.21998
-3.31789
-3.52966
-3.92685
-4.43509
-4.81967
-4.93953
-4.78655
-4.33743
-3.81188
-3.50717
-3.27587
-3.10838
-2.98508
-2.89264
-2.82695
-3.13352
-3.13694
-3.14337
-3.15299
-3.16606
-3.18341
-3.20706
-3.23938
-3.29178
-3.40465
-3.61829
-3.89019
-4.10736
-4.17156
-4.09097
-3.84075
-3.58738
-3.42338
-3.27828
-3.16468
-3.07526
-3.00593
-2.95559
-3.22542
-3.22726
-3.23068
-3.2357
-3.24248
-3.25148
-3.26385
-3.28054
-3.30643
-3.35935
-3.45918
-3.59051
-3.69313
-3.72024
-3.67856
-3.57992
-3.4753
-3.38795
-3.30004
-3.22569
-3.16386
-3.11442
-3.07782
-3.31747
-3.31811
-3.31937
-3.32121
-3.32369
-3.32713
-3.33235
-3.34007
-3.35262
-3.37701
-3.42087
-3.47977
-3.53106
-3.55218
-3.53593
-3.49784
-3.4502
-3.39972
-3.34628
-3.29814
-3.25651
-3.22247
-3.19708
-3.41138
-3.41126
-3.4111
-3.41088
-3.41065
-3.4107
-3.41161
-3.41411
-3.41978
-3.43222
-3.45464
-3.48416
-3.51097
-3.52624
-3.526
-3.50579
-3.47754
-3.44598
-3.41305
-3.38211
-3.35474
-3.33212
-3.31539
-3.50843
-3.50791
-3.5069
-3.50546
-3.50366
-3.50176
-3.50022
-3.49961
-3.50108
-3.50666
-3.51779
-3.53259
-3.54649
-3.55558
-3.55703
-3.5489
-3.5338
-3.51519
-3.49516
-3.47572
-3.45833
-3.44404
-3.43381
-3.6093
-3.6086
-3.60715
-3.60506
-3.60244
-3.59952
-3.5967
-3.59445
-3.59358
-3.59534
-3.60049
-3.60807
-3.61565
-3.6209
-3.62193
-3.6179
-3.61028
-3.60008
-3.5885
-3.57693
-3.56655
-3.55827
-3.55281
-3.71423
-3.71343
-3.7118
-3.70943
-3.70646
-3.70311
-3.69972
-3.69669
-3.69462
-3.69426
-3.69603
-3.6995
-3.70347
-3.70648
-3.70736
-3.70573
-3.70185
-3.69652
-3.69033
-3.68408
-3.67861
-3.6746
-3.67261
-3.82294
-3.82211
-3.82044
-3.81802
-3.81499
-3.81155
-3.80798
-3.80464
-3.80197
-3.80046
-3.80037
-3.80152
-3.80334
-3.80501
-3.80582
-3.80545
-3.80384
-3.80145
-3.79865
-3.79593
-3.79381
-3.79279
-3.79323
-3.93505
-3.93422
-3.93261
-3.93027
-3.92733
-3.92399
-3.92049
-3.91711
-3.91421
-3.91213
-3.91108
-3.91099
-3.91158
-3.9124
-3.91306
-3.91331
-3.91305
-3.91251
-3.91188
-3.91145
-3.91157
-3.91256
-3.91467
-4.05016
-4.04937
-4.04785
-4.04566
-4.0429
-4.03975
-4.03642
-4.03314
-4.03022
-4.02789
-4.02633
-4.02557
-4.02547
-4.02581
-4.02633
-4.02688
-4.02745
-4.02804
-4.02876
-4.0298
-4.03136
-4.03366
-4.03684
-4.16794
-4.16721
-4.1658
-4.16377
-4.16121
-4.15828
-4.15516
-4.15206
-4.14921
-4.14681
-4.14502
-4.14389
-4.1434
-4.14345
-4.14387
-4.14459
-4.14558
-4.14681
-4.14836
-4.1503
-4.15276
-4.15586
-4.15969
-4.28808
-4.28741
-4.28611
-4.28423
-4.28186
-4.27916
-4.27625
-4.27333
-4.27059
-4.26821
-4.26632
-4.26501
-4.2643
-4.26415
-4.2645
-4.26527
-4.26645
-4.268
-4.27002
-4.27247
-4.27543
-4.27896
-4.28312
-4.41028
-4.40968
-4.40846
-4.40671
-4.40452
-4.402
-4.39929
-4.39654
-4.39392
-4.3916
-4.38968
-4.38826
-4.38741
-4.38711
-4.38736
-4.38812
-4.38937
-4.39112
-4.39327
-4.39593
-4.39911
-4.40281
-4.40707
-4.53426
-4.5337
-4.53256
-4.53092
-4.52888
-4.52651
-4.52396
-4.52135
-4.51885
-4.51657
-4.51464
-4.51316
-4.51219
-4.51177
-4.5119
-4.51258
-4.51378
-4.51549
-4.51768
-4.52039
-4.52359
-4.52729
-4.53146
-4.65974
-4.65921
-4.65813
-4.65659
-4.65466
-4.65241
-4.64998
-4.6475
-4.64507
-4.64283
-4.64088
-4.63934
-4.63827
-4.63772
-4.63772
-4.63826
-4.63934
-4.64094
-4.64298
-4.64565
-4.64874
-4.65227
-4.65624
-4.7865
-4.78599
-4.78497
-4.7835
-4.78164
-4.77949
-4.77715
-4.77474
-4.77236
-4.77012
-4.76815
-4.76654
-4.76537
-4.76468
-4.76452
-4.7649
-4.76581
-4.76726
-4.76927
-4.77159
-4.77442
-4.77769
-4.78135
-4.91435
-4.91386
-4.91287
-4.91144
-4.90964
-4.90756
-4.90528
-4.9029
-4.90053
-4.89829
-4.89627
-4.89458
-4.89328
-4.89244
-4.8921
-4.89228
-4.89297
-4.89418
-4.89588
-4.89799
-4.90053
-4.90348
-4.90677
-5.04306
-5.04258
-5.04162
-5.04023
-5.03847
-5.03643
-5.03418
-5.03181
-5.02944
-5.02716
-5.02508
-5.02329
-5.02185
-5.02084
-5.0203
-5.02025
-5.02069
-5.02162
-5.02301
-5.02482
-5.02702
-5.02959
-5.03247
-5.1725
-5.17203
-5.17109
-5.16972
-5.16799
-5.16596
-5.16372
-5.16135
-5.15895
-5.15662
-5.15446
-5.15255
-5.15097
-5.14977
-5.14901
-5.14871
-5.14888
-5.1495
-5.15057
-5.15203
-5.15386
-5.15601
-5.15844
-5.30271
-5.30226
-5.30132
-5.29996
-5.29823
-5.29619
-5.29392
-5.29151
-5.28905
-5.28665
-5.28437
-5.28232
-5.28057
-5.27917
-5.27817
-5.27761
-5.27748
-5.27779
-5.27851
-5.2796
-5.28103
-5.28273
-5.28467
-5.43363
-5.4332
-5.43226
-5.43091
-5.42916
-5.42709
-5.42477
-5.42229
-5.41975
-5.41723
-5.41481
-5.41259
-5.41063
-5.40901
-5.40776
-5.40691
-5.40648
-5.40645
-5.40681
-5.40752
-5.40853
-5.40977
-5.41119
-5.565
-5.56461
-5.56369
-5.56234
-5.56058
-5.55847
-5.5561
-5.55355
-5.55091
-5.54826
-5.54569
-5.54329
-5.54113
-5.53926
-5.53774
-5.5366
-5.53584
-5.53547
-5.53547
-5.53579
-5.53638
-5.53714
-5.53802
-5.69701
-5.6968
-5.69589
-5.69452
-5.69271
-5.69055
-5.68811
-5.68546
-5.6827
-5.6799
-5.67715
-5.67454
-5.67214
-5.67001
-5.66819
-5.66672
-5.66562
-5.66489
-5.66452
-5.66447
-5.66465
-5.66491
-5.66521
-3.256
-2.60414
-3.20752
-3.53257
-4.46828
-2.06611
-2.19218
-2.84271
18.145
-0.671659
-2.72092
-3.50467
8.77858
3.1567
-4.66586
-5.75776
-1.72427
1.11132
-3.29767
-7.0187
-1.51603
-2.76965
-6.17068
-9.34804
-0.571515
-0.784805
-1.5079
-3.08753
-0.416885
-0.341969
-0.170303
-0.247767
-0.573086
-0.445082
-0.251285
-0.132239
-0.854373
-0.764905
-0.670737
-0.609832
-1.13701
-1.07939
-1.03177
-1.0061
-1.40798
-1.36896
-1.3394
-1.32467
-1.66249
-1.63246
-1.61054
-1.59916
-1.89732
-1.87077
-1.8517
-1.8413
-2.11303
-2.08783
-2.06968
-2.05899
-2.30942
-2.28517
-2.26752
-2.2564
-2.48702
-2.46434
-2.44765
-2.43667
-2.64759
-2.62749
-2.61256
-2.60243
-2.79405
-2.77732
-2.76478
-2.75613
-2.93004
-2.91699
-2.9072
-2.9004
-3.05916
-3.04965
-3.04257
-3.03773
-3.18426
-3.17782
-3.17317
-3.17017
-3.30724
-3.3033
-3.30066
-3.29923
-3.42925
-3.42726
-3.42621
-3.42606
-3.55095
-3.55043
-3.5506
-3.55144
-3.67271
-3.67327
-3.67434
-3.67591
-3.79473
-3.79605
-3.79777
-3.79986
-3.9171
-3.91895
-3.9211
-3.92354
-4.03988
-4.04206
-4.04446
-4.0471
-4.16307
-4.16542
-4.16796
-4.17068
-4.28665
-4.28906
-4.29162
-4.29434
-4.4106
-4.41298
-4.41549
-4.41813
-4.53488
-4.53717
-4.53957
-4.54208
-4.65946
-4.66162
-4.66386
-4.66619
-4.78432
-4.7863
-4.78835
-4.79047
-4.90944
-4.91121
-4.91304
-4.91494
-5.0348
-5.03634
-5.03794
-5.03958
-5.1604
-5.1617
-5.16304
-5.16441
-5.28624
-5.28728
-5.28835
-5.28945
-5.41234
-5.4131
-5.41389
-5.4147
-5.53873
-5.5392
-5.53969
-5.54019
-5.66546
-5.66562
-5.66579
-5.66596
-3.21757
-3.14539
-3.13955
-3.03886
-2.89746
-2.73963
-2.5877
-2.45091
-2.33155
-2.22952
-2.14299
-2.07032
-2.0106
-1.96107
-1.92117
-1.89144
-1.86874
-1.85393
-1.84664
-3.55328
-3.76155
-3.64933
-3.40924
-3.15537
-2.92211
-2.72392
-2.56113
-2.4277
-2.31931
-2.23013
-2.15648
-2.09952
-2.051
-2.01272
-1.98369
-1.9624
-1.94849
-1.94171
-4.69941
-4.86887
-4.45948
-3.88386
-3.43147
-3.09152
-2.83912
-2.65203
-2.50626
-2.39504
-2.30558
-2.23408
-2.17777
-2.13241
-2.09672
-2.0696
-2.05002
-2.0372
-2.03114
-6.9682
-6.77519
-5.54223
-4.39386
-3.66477
-3.2133
-2.91151
-2.71631
-2.56404
-2.4519
-2.36628
-2.29963
-2.24739
-2.2061
-2.17385
-2.14942
-2.13208
-2.11952
-2.11316
-8.72002
-7.97256
-6.23225
-4.7029
-3.75304
-3.25124
-2.93523
-2.73255
-2.59104
-2.48893
-2.41267
-2.35417
-2.30853
-2.2727
-2.2448
-2.2236
-2.20719
-2.19749
-2.19247
-8.23001
-7.80953
-6.30641
-4.66408
-3.64683
-3.16109
-2.88199
-2.70709
-2.59048
-2.50772
-2.44625
-2.39917
-2.36228
-2.3332
-2.31053
-2.29262
-2.27999
-2.27191
-2.26788
-6.63086
-7.14734
-5.68684
-4.18997
-3.31128
-2.94722
-2.76337
-2.647
-2.56879
-2.51268
-2.47018
-2.43708
-2.41038
-2.38899
-2.37184
-2.35883
-2.34936
-2.34321
-2.34016
-1.21713
-4.1839
-3.70571
-3.1305
-2.79384
-2.66722
-2.61285
-2.5703
-2.53694
-2.51056
-2.48884
-2.47123
-2.4548
-2.44162
-2.43093
-2.42254
-2.41631
-2.4122
-2.41015
-0.525788
-1.51716
-1.9201
-2.25014
-2.37503
-2.43714
-2.48093
-2.50065
-2.50778
-2.50894
-2.50653
-2.50167
-2.49777
-2.49314
-2.48871
-2.48487
-2.48184
-2.47975
-2.47869
-0.669315
-1.06046
-1.52409
-1.92794
-2.16398
-2.3021
-2.39479
-2.45398
-2.49105
-2.51437
-2.52874
-2.53725
-2.5425
-2.5453
-2.54656
-2.54697
-2.54694
-2.54677
-2.54665
-1.02008
-1.23713
-1.5519
-1.85089
-2.07919
-2.24023
-2.35516
-2.43583
-2.49192
-2.53099
-2.55819
-2.57711
-2.59034
-2.59949
-2.60572
-2.60987
-2.61253
-2.61409
-2.61481
-1.33057
-1.46172
-1.66811
-1.89168
-2.08597
-2.23937
-2.35732
-2.44607
-2.51199
-2.56072
-2.59665
-2.62311
-2.6426
-2.65685
-2.66716
-2.67446
-2.6794
-2.68245
-2.68391
-1.59904
-1.68019
-1.82353
-1.98977
-2.14707
-2.2822
-2.39303
-2.48132
-2.55035
-2.60376
-2.64481
-2.67622
-2.70013
-2.71819
-2.73164
-2.74143
-2.74821
-2.75248
-2.75454
-1.83866
-1.89196
-1.99198
-2.11512
-2.24016
-2.3548
-2.45411
-2.5371
-2.60484
-2.65927
-2.70255
-2.73667
-2.76335
-2.78398
-2.79967
-2.81129
-2.81947
-2.82467
-2.8272
-2.05353
-2.08886
-2.16004
-2.25241
-2.35141
-2.44696
-2.53359
-2.609
-2.67283
-2.72582
-2.76919
-2.80426
-2.8323
-2.85441
-2.87152
-2.88436
-2.89351
-2.89938
-2.90224
-2.24844
-2.2718
-2.32356
-2.39385
-2.47249
-2.55159
-2.62606
-2.69315
-2.75174
-2.80178
-2.84376
-2.87848
-2.90678
-2.92948
-2.94729
-2.96081
-2.97054
-2.97683
-2.9799
-2.42743
-2.44284
-2.48118
-2.53554
-2.59849
-2.66391
-2.72746
-2.7864
-2.83928
-2.88554
-2.92522
-2.95867
-2.98641
-3.00898
-3.02691
-3.04068
-3.05066
-3.05715
-3.06033
-2.59319
-2.6036
-2.63268
-2.6756
-2.72651
-2.7808
-2.83491
-2.88632
-2.93351
-2.97566
-3.01251
-3.04411
-3.0707
-3.09263
-3.11025
-3.12389
-3.13386
-3.14037
-3.14357
-2.74804
-2.75566
-2.77839
-2.81336
-2.85496
-2.90024
-2.94633
-2.99103
-3.03286
-3.07089
-3.10469
-3.13409
-3.15917
-3.18009
-3.19707
-3.21033
-3.22007
-3.22646
-3.22962
-2.89413
-2.90049
-2.91839
-2.94912
-2.98296
-3.02092
-3.06031
-3.09917
-3.1361
-3.17019
-3.2009
-3.22798
-3.25133
-3.27101
-3.28712
-3.2998
-3.30916
-3.31533
-3.31838
-3.03364
-3.03996
-3.05591
-3.0803
-3.10966
-3.14201
-3.17589
-3.20974
-3.2423
-3.27272
-3.30046
-3.32518
-3.34672
-3.36503
-3.38014
-3.39209
-3.40097
-3.40684
-3.40975
-3.16822
-3.1749
-3.18922
-3.20996
-3.23509
-3.26307
-3.29242
-3.32206
-3.35074
-3.37783
-3.40277
-3.42521
-3.44493
-3.46182
-3.47584
-3.487
-3.49532
-3.50084
-3.50358
-3.29918
-3.30639
-3.31954
-3.33774
-3.3596
-3.38389
-3.40938
-3.4357
-3.46092
-3.48498
-3.50735
-3.52763
-3.54557
-3.56105
-3.57396
-3.58429
-3.59201
-3.59716
-3.59971
-3.42758
-3.4353
-3.44763
-3.46393
-3.48321
-3.50453
-3.52699
-3.5499
-3.57234
-3.59377
-3.61382
-3.63208
-3.64834
-3.66244
-3.67425
-3.68374
-3.69086
-3.69562
-3.69798
-3.55419
-3.56232
-3.57402
-3.58883
-3.60603
-3.6249
-3.64474
-3.66492
-3.68479
-3.70384
-3.72189
-3.73826
-3.75296
-3.76573
-3.77649
-3.78515
-3.79167
-3.79605
-3.79821
-3.67958
-3.68798
-3.69914
-3.71272
-3.72819
-3.74501
-3.76262
-3.7805
-3.79814
-3.81513
-3.83117
-3.84586
-3.8592
-3.87071
-3.88045
-3.88834
-3.89428
-3.89828
-3.90025
-3.80416
-3.81269
-3.82333
-3.83586
-3.84986
-3.86492
-3.88061
-3.89651
-3.9122
-3.92735
-3.94165
-3.95484
-3.96675
-3.97714
-3.98595
-3.99313
-3.9985
-4.00215
-4.00391
-3.92823
-3.93673
-3.94685
-3.95843
-3.97115
-3.9847
-3.99872
-4.01289
-4.02687
-4.04036
-4.05312
-4.06492
-4.07557
-4.08492
-4.09285
-4.0993
-4.10417
-4.10749
-4.10906
-4.052
-4.06033
-4.06991
-4.08061
-4.09219
-4.1044
-4.11696
-4.1296
-4.14205
-4.15408
-4.16545
-4.17598
-4.1855
-4.19387
-4.20099
-4.20678
-4.21117
-4.21414
-4.21557
-4.17562
-4.18366
-4.19267
-4.20253
-4.21307
-4.22407
-4.23533
-4.24661
-4.25771
-4.26841
-4.27853
-4.28791
-4.29639
-4.30386
-4.31023
-4.31541
-4.31934
-4.322
-4.32329
-4.29919
-4.30685
-4.31525
-4.32431
-4.33387
-4.34378
-4.35386
-4.36392
-4.37379
-4.3833
-4.39228
-4.4006
-4.40814
-4.41478
-4.42044
-4.42506
-4.42856
-4.43093
-4.43209
-4.42279
-4.42998
-4.43775
-4.44602
-4.45467
-4.46356
-4.47256
-4.48151
-4.49026
-4.49868
-4.50662
-4.51398
-4.52064
-4.52652
-4.53153
-4.53562
-4.53872
-4.54082
-4.54186
-4.54646
-4.55313
-4.56024
-4.56774
-4.57551
-4.58345
-4.59144
-4.59936
-4.60709
-4.6145
-4.62149
-4.62796
-4.63381
-4.63898
-4.64339
-4.64698
-4.64972
-4.65156
-4.65249
-4.67024
-4.67633
-4.68277
-4.6895
-4.69642
-4.70346
-4.71051
-4.71747
-4.72424
-4.73072
-4.73683
-4.74247
-4.74757
-4.75208
-4.75592
-4.75906
-4.76145
-4.76305
-4.76388
-4.79415
-4.79963
-4.80537
-4.81134
-4.81744
-4.82361
-4.82976
-4.83582
-4.84169
-4.8473
-4.85257
-4.85744
-4.86185
-4.86574
-4.86906
-4.87176
-4.87382
-4.87521
-4.87593
-4.9182
-4.92304
-4.92807
-4.93327
-4.93857
-4.94389
-4.94919
-4.95438
-4.9594
-4.96419
-4.96868
-4.97283
-4.97658
-4.97988
-4.9827
-4.985
-4.98676
-4.98793
-4.98856
-5.04241
-5.04657
-5.05089
-5.05532
-5.05982
-5.06432
-5.06878
-5.07314
-5.07735
-5.08135
-5.08511
-5.08857
-5.09169
-5.09445
-5.09679
-5.09871
-5.10017
-5.10114
-5.10167
-5.16678
-5.17025
-5.17383
-5.1775
-5.18119
-5.18489
-5.18853
-5.19208
-5.19551
-5.19876
-5.2018
-5.2046
-5.20713
-5.20935
-5.21125
-5.2128
-5.21397
-5.21476
-5.2152
-5.29133
-5.29409
-5.29692
-5.2998
-5.3027
-5.30559
-5.30843
-5.31119
-5.31384
-5.31636
-5.31871
-5.32088
-5.32283
-5.32454
-5.326
-5.32719
-5.3281
-5.3287
-5.32905
-5.41608
-5.41809
-5.42015
-5.42224
-5.42434
-5.42642
-5.42846
-5.43043
-5.43233
-5.43413
-5.4358
-5.43734
-5.43873
-5.43995
-5.44099
-5.44183
-5.44247
-5.44289
-5.44316
-5.54105
-5.54228
-5.54355
-5.54482
-5.5461
-5.54736
-5.5486
-5.54979
-5.55094
-5.55202
-5.55302
-5.55395
-5.55478
-5.55551
-5.55613
-5.55663
-5.55702
-5.55726
-5.55743
-5.66626
-5.66669
-5.66713
-5.66757
-5.668
-5.66843
-5.66885
-5.66926
-5.66964
-5.67001
-5.67035
-5.67066
-5.67093
-5.67118
-5.67138
-5.67155
-5.67168
-5.67176
-5.67182
)
;

boundaryField
{
    leftWall
    {
        type            calculated;
        value           nonuniform List<scalar> 
50
(
2499.29
2439.13
2377.65
2314.88
2250.86
2185.61
2119.16
2051.6
1944.32
1794.05
1640.24
1483.72
1325.32
1165.9
1006.31
847.199
689.379
533.752
380.108
228.111
87.1106
9.95162
-2.59496
-2.71967
-2.83519
-2.94159
-3.03996
-3.13352
-3.22542
-3.31747
-3.41138
-3.50843
-3.6093
-3.71423
-3.82294
-3.93505
-4.05016
-4.16794
-4.28808
-4.41028
-4.53426
-4.65974
-4.7865
-4.91435
-5.04306
-5.1725
-5.30271
-5.43363
-5.565
-5.69701
)
;
    }
    rightWall
    {
        type            calculated;
        value           nonuniform List<scalar> 
50
(
-1.40021
-1.45763
-1.51362
-1.56818
-1.62132
-1.67304
-1.72335
-1.77229
-1.84664
-1.94171
-2.03114
-2.11316
-2.19247
-2.26788
-2.34016
-2.41015
-2.47869
-2.54665
-2.61481
-2.68391
-2.75454
-2.8272
-2.90224
-2.9799
-3.06033
-3.14357
-3.22962
-3.31838
-3.40975
-3.50358
-3.59971
-3.69798
-3.79821
-3.90025
-4.00391
-4.10906
-4.21557
-4.32329
-4.43209
-4.54186
-4.65249
-4.76388
-4.87593
-4.98856
-5.10167
-5.2152
-5.32905
-5.44316
-5.55743
-5.67182
)
;
    }
    lowerWall
    {
        type            calculated;
        value           nonuniform List<scalar> 
62
(
2528.72
2533.08
2528.33
2517.4
2502.68
2484.43
2462.05
2435.11
2403.4
2366.91
2326.13
2282.4
2238.42
2199.11
2172.98
2174.01
2224.03
2358.4
2603.07
2979.72
3440.52
3838.93
4083.04
4064.22
4096.98
4104.45
4030.06
3841.77
3518.13
2976.63
2098.27
21.034
-2.54154
-3.14493
-3.46997
-2.20469
-2.26326
-2.32495
-2.38969
-2.461
-2.54417
-2.65811
-2.8147
-2.17526
-2.20035
-2.21503
-2.1997
-2.15549
-2.08767
-2.00583
-1.91799
-1.83032
-1.74698
-1.67054
-1.6024
-1.54312
-1.49289
-1.45156
-1.41894
-1.39473
-1.37875
-1.37078
)
;
    }
    atmosphere
    {
        type            calculated;
        value           nonuniform List<scalar> 
46
(
-5.76335
-5.76345
-5.7625
-5.76108
-5.75923
-5.75703
-5.75453
-5.75181
-5.74897
-5.74608
-5.74322
-5.74049
-5.73795
-5.73566
-5.73367
-5.73203
-5.73074
-5.72982
-5.72926
-5.72904
-5.72904
-5.72904
-5.72904
-5.72904
-5.72904
-5.72904
-5.72904
-5.72904
-5.72904
-5.72904
-5.72904
-5.72904
-5.72904
-5.72904
-5.72904
-5.72904
-5.72904
-5.72904
-5.72904
-5.72904
-5.72904
-5.72904
-5.72904
-5.72904
-5.72904
-5.72904
)
;
    }
    defaultFaces
    {
        type            empty;
    }
}


// ************************************************************************* //
