/*--------------------------------*- C++ -*----------------------------------*\
| =========                 |                                                 |
| \\      /  F ield         | OpenFOAM: The Open Source CFD Toolbox           |
|  \\    /   O peration     | Version:  5.x                                   |
|   \\  /    A nd           | Web:      www.OpenFOAM.org                      |
|    \\/     M anipulation  |                                                 |
\*---------------------------------------------------------------------------*/
FoamFile
{
    version     2.0;
    format      ascii;
    class       volScalarField;
    location    "0.15";
    object      p_rgh;
}
// * * * * * * * * * * * * * * * * * * * * * * * * * * * * * * * * * * * * * //

dimensions      [1 -1 -2 0 0 0 0];

internalField   nonuniform List<scalar> 
2268
(
2528.72
2533.08
2528.33
2517.4
2502.68
2484.43
2462.05
2435.11
2403.4
2366.91
2326.13
2282.4
2238.42
2199.11
2172.98
2174.01
2224.03
2358.4
2603.07
2979.72
3440.52
3838.93
4083.04
2527.41
2531.7
2526.87
2515.92
2501.19
2482.88
2460.38
2433.28
2401.31
2364.43
2323.09
2278.55
2233.37
2192.27
2163.45
2160.28
2203.13
2317
2540.43
2898.21
3376.89
3836.05
4158.93
2524.8
2528.96
2523.96
2512.98
2498.22
2479.77
2457.05
2429.61
2397.13
2359.49
2317.05
2270.88
2223.29
2178.62
2144.45
2133.19
2163.78
2262.53
2464.38
2793.07
3255.42
3771.68
4214.51
2520.89
2524.87
2519.63
2508.58
2493.77
2475.14
2452.09
2424.14
2390.91
2352.16
2308.08
2259.51
2208.36
2158.38
2116.31
2093.19
2106.39
2181.78
2354.91
2655.65
3099.1
3640.19
4208.52
2515.73
2519.46
2513.95
2502.8
2487.9
2469.03
2445.56
2416.96
2382.74
2342.54
2296.33
2244.63
2188.8
2131.88
2079.45
2040.72
2030.69
2073.46
2205.59
2465.47
2885.88
3435.72
4106.18
2509.33
2512.8
2506.95
2495.68
2480.66
2461.51
2437.52
2408.13
2372.72
2330.76
2281.98
2226.46
2164.97
2099.59
2034.49
1976.47
1937.18
1937.16
2011.54
2202.24
2572.62
3124.35
3841.85
2501.75
2504.88
2498.65
2487.22
2472.07
2452.59
2428.02
2397.71
2360.93
2316.95
2265.2
2205.3
2137.27
2062.14
1982.3
1901.58
1827.3
1774.16
1770.39
1840.48
2095.1
2622.64
3358.74
2493.04
2495.69
2489.06
2477.45
2462.15
2442.3
2417.07
2385.74
2347.43
2301.2
2246.16
2181.41
2106.17
2020.28
1924.02
1817.95
1703.8
1585.27
1471.65
1337.51
1297.35
1834.26
2539.1
-2.17526
-2.20035
-2.21503
-2.1997
-2.15549
-2.08767
-2.00583
-1.91799
-1.83032
-1.74698
-1.67054
-1.6024
-1.54312
-1.49289
-1.45156
-1.41894
-1.39473
-1.37875
-1.37078
-2.17497
-2.20442
-2.22134
-2.20581
-2.16003
-2.09063
-2.00734
-1.91835
-1.82986
-1.74599
-1.66923
-1.60092
-1.54157
-1.49133
-1.45001
-1.41744
-1.39326
-1.3773
-1.36934
-2.1778
-2.21283
-2.2333
-2.21725
-2.16912
-2.09653
-2.0103
-1.91899
-1.82887
-1.74394
-1.66655
-1.59791
-1.53843
-1.48819
-1.44691
-1.41442
-1.39032
-1.37441
-1.36648
-2.18368
-2.22677
-2.2525
-2.23518
-2.18302
-2.1054
-2.01464
-1.91983
-1.82725
-1.74075
-1.66243
-1.59332
-1.53368
-1.48343
-1.44224
-1.40988
-1.38589
-1.37006
-1.36218
-2.19614
-2.24867
-2.28089
-2.26055
-2.20209
-2.11724
-2.02023
-1.92068
-1.82484
-1.73629
-1.6568
-1.58712
-1.52729
-1.47705
-1.436
-1.40382
-1.37998
-1.36427
-1.35645
-2.22045
-2.28196
-2.32098
-2.29458
-2.22669
-2.13201
-2.02684
-1.92129
-1.82143
-1.73042
-1.64955
-1.57922
-1.51923
-1.46904
-1.42817
-1.39625
-1.37262
-1.35706
-1.34931
-2.27553
-2.33406
-2.3756
-2.33875
-2.25732
-2.14962
-2.03419
-1.92139
-1.8168
-1.72297
-1.64057
-1.56955
-1.50946
-1.45937
-1.41871
-1.38719
-1.3638
-1.34842
-1.34077
-2.37326
-2.41038
-2.44911
-2.39439
-2.29435
-2.16994
-2.04197
-1.92066
-1.81067
-1.71374
-1.62972
-1.55802
-1.49794
-1.44801
-1.40765
-1.37665
-1.35354
-1.33838
-1.33085
2477.79
2479.46
2472.32
2460.42
2444.78
2424.29
2397.93
2364.84
2323.92
2273.86
2213.22
2140.2
2052.68
1948.41
1824.62
1676.95
1493.69
1247.06
876.786
428.514
269.429
523.778
928.187
2452.71
2453.17
2445.27
2432.97
2416.75
2395.2
2367.14
2331.46
2286.67
2230.9
2161.9
2076.52
1970.54
1839.45
1678.05
1472.07
1188.91
722.706
175.99
24.2262
38.0749
81.5221
683.069
2424.1
2423.23
2414.57
2401.93
2385.15
2362.54
2332.83
2294.67
2246.15
2184.9
2107.91
2010.44
1886.68
1732.32
1538.19
1271.63
775.379
119.844
4.02933
2.88859
4.71055
12.7628
379.287
2392.77
2390.56
2381.27
2368.39
2351.1
2327.58
2296.49
2256.25
2204.58
2138.74
2054.88
1946.5
1808.16
1636.73
1408.04
999.097
179.947
3.04132
-0.452245
-0.603389
-0.303872
0.866078
9.6947
2359.56
2356.06
2346.36
2333.36
2315.71
2291.55
2259.54
2217.9
2164.07
2095.15
2006.01
1889.12
1741.92
1552.75
1282.87
366.096
4.35107
-0.310778
-0.753293
-0.784602
-0.732195
-0.732561
-0.0213901
2325.34
2320.71
2310.84
2297.87
2280.06
2255.63
2223.31
2181.13
2126.51
2056.42
1964.05
1843.46
1693.25
1480.3
777.577
23.7214
0.2483
-0.490204
-0.531261
-0.528143
-0.444068
-0.250605
-0.00351159
2290.95
2285.36
2275.6
2262.79
2245.05
2220.79
2188.82
2147.08
2093.28
2024.04
1931.48
1814.61
1661.72
1393.55
225.893
1.26612
-0.284849
-0.301986
-0.285108
-0.224766
-0.0780315
0.268147
0.593148
2257.03
2250.65
2241.29
2228.78
2211.41
2187.79
2156.89
2116.63
2065.33
1998.83
1910.68
1804.21
1644.42
700.129
5.5349
-0.03149
-0.17498
-0.139979
-0.092843
0.00967099
0.17511
0.466859
0.79534
2224.4
2217.44
2208.72
2196.65
2179.92
2157.37
2128.1
2090.18
2042.5
1980.21
1900.4
1803.6
1645.47
221.564
0.758071
-0.0395978
0.0334643
0.0104617
0.0527286
0.142683
0.288006
0.504269
0.764786
2193.97
2186.53
2178.61
2167
2151.07
2129.77
2102.28
2066.88
2023.15
1966.54
1895.49
1803.87
1112.46
42.7383
0.432274
0.287904
0.182494
0.12167
0.136784
0.196542
0.311979
0.472473
0.663513
2165.52
2157.44
2150.44
2139.3
2124.4
2104.68
2079.34
2046.33
2006.33
1956.86
1880.24
1665.59
531.935
13.4013
0.783062
0.586585
0.271571
0.163609
0.145942
0.187475
0.280732
0.405625
0.549952
2138.72
2128.54
2122.64
2111.88
2097.94
2079.94
2051.98
1977.86
1818.49
1495.89
966.999
429.927
72.4272
32.1712
1.55589
0.541658
0.215
0.0881271
0.0769321
0.123294
0.209089
0.31631
0.430861
1916.16
1818.54
1792.96
1708.6
1580.14
1397.95
1143.48
796.325
462.361
156.215
-1.4043
-1.49408
-1.33563
34.2505
17.7995
0.0962742
-0.150115
-0.127417
-0.0650252
0.0107438
0.11068
0.215318
0.315431
437.646
330.641
303.571
232.759
148.814
63.3411
-0.451926
-0.759732
-1.08596
-1.41772
-1.53934
-1.69534
-1.69464
6.61947
20.8072
2.79196
-0.832146
-0.460856
-0.269161
-0.128663
0.000655268
0.114554
0.211414
-0.308765
-0.313984
-0.351093
-0.407951
-0.490967
-0.591886
-0.646007
-0.77194
-1.00227
-1.30869
-1.62953
-1.97685
-2.16649
-2.195
20.9838
4.11494
-1.48906
-0.788341
-0.484724
-0.264085
-0.100829
0.0254391
0.123081
-0.308287
-0.319622
-0.347655
-0.390722
-0.450783
-0.524078
-0.605698
-0.731633
-0.936611
-1.26047
-1.72291
-2.27656
-2.6532
-2.62123
13.5283
2.26741
-1.7469
-1.0134
-0.629197
-0.35915
-0.176857
-0.0434573
0.0536749
-0.298609
-0.310024
-0.330945
-0.363244
-0.40764
-0.464648
-0.540072
-0.655039
-0.841881
-1.17844
-1.72216
-1.68264
-1.37251
-1.77016
1.4619
-1.30454
-1.72077
-1.06351
-0.665902
-0.39584
-0.216521
-0.0869862
0.0045208
-0.279814
-0.288055
-0.303301
-0.326587
-0.358577
-0.401136
-0.460426
-0.550062
-0.700308
-1.00179
-1.54608
-0.740456
0.155487
0.0940343
-0.481572
-2.28332
-1.4302
-0.93735
-0.605013
-0.377296
-0.220438
-0.105924
-0.0255531
-0.252993
-0.25832
-0.268734
-0.284466
-0.305988
-0.334835
-0.374909
-0.43301
-0.530886
-0.741807
-1.13848
-0.937176
0.452926
-0.764964
-1.99799
-1.55043
-1.02491
-0.720198
-0.488906
-0.321408
-0.198114
-0.10567
-0.039977
-0.22136
-0.224774
-0.231209
-0.240831
-0.253898
-0.271252
-0.294892
-0.327215
-0.379333
-0.489104
-0.704691
-0.978024
-1.19519
-1.25937
-1.17875
-0.928583
-0.675213
-0.511219
-0.366113
-0.252521
-0.163099
-0.0937716
-0.0434249
-0.18806
-0.1899
-0.193319
-0.19834
-0.205127
-0.21412
-0.226496
-0.243179
-0.269068
-0.321997
-0.421818
-0.553149
-0.655764
-0.682836
-0.641198
-0.542557
-0.437944
-0.35059
-0.262686
-0.188331
-0.126504
-0.0770586
-0.0404669
-0.154917
-0.155556
-0.156822
-0.158654
-0.161137
-0.16458
-0.169801
-0.177521
-0.190067
-0.214455
-0.25832
-0.317216
-0.3685
-0.389626
-0.37338
-0.335292
-0.287651
-0.237169
-0.183731
-0.135585
-0.0939532
-0.0599134
-0.0345236
-0.123632
-0.123509
-0.123353
-0.123135
-0.122908
-0.122951
-0.123866
-0.126362
-0.132038
-0.144476
-0.16689
-0.196415
-0.223218
-0.23849
-0.238253
-0.218045
-0.189797
-0.158235
-0.125302
-0.0943665
-0.0669892
-0.0443765
-0.0276415
-0.0954863
-0.0949687
-0.0939583
-0.0925235
-0.0907188
-0.0888165
-0.0872742
-0.0866716
-0.0881356
-0.0937235
-0.104849
-0.119652
-0.133552
-0.142634
-0.144089
-0.135961
-0.12086
-0.102245
-0.0822218
-0.0627794
-0.0453903
-0.0311031
-0.0208654
-0.0711692
-0.0704676
-0.0690139
-0.0669274
-0.0643007
-0.0613867
-0.0585628
-0.0563146
-0.0554477
-0.0572017
-0.0623562
-0.0699327
-0.0775115
-0.0827624
-0.0837945
-0.0797652
-0.0721415
-0.0619416
-0.050368
-0.0387901
-0.0284172
-0.0201326
-0.0146789
-0.0509002
-0.0501035
-0.0484701
-0.0460961
-0.0431252
-0.0397802
-0.036385
-0.0333557
-0.0312908
-0.0309341
-0.0326997
-0.0361664
-0.040139
-0.0431491
-0.0440338
-0.042403
-0.0385247
-0.0331921
-0.0269952
-0.0207505
-0.01528
-0.0112712
-0.00927707
-0.0344188
-0.0335822
-0.0319187
-0.0294918
-0.0264615
-0.0230236
-0.019458
-0.0161147
-0.0134473
-0.0119384
-0.0118452
-0.012999
-0.0148193
-0.0164862
-0.0172916
-0.016921
-0.0153192
-0.012921
-0.0101232
-0.00740596
-0.00529012
-0.00426157
-0.00470804
-0.021329
-0.0205002
-0.0188864
-0.0165471
-0.0136139
-0.0102726
-0.00676602
-0.00338693
-0.000488297
0.00158514
0.00263855
0.00272472
0.00213768
0.0013157
0.000659426
0.00041207
0.000666879
0.00121205
0.00184108
0.00226445
0.00214675
0.00116194
-0.000945934
-0.0112492
-0.010459
-0.00893907
-0.00674865
-0.00398715
-0.000836814
0.00249698
0.00576939
0.00869883
0.0110255
0.0125838
0.0133478
0.0134416
0.0131033
0.0125859
0.0120298
0.01146
0.0108754
0.0101506
0.0091119
0.00754986
0.00525628
0.00207172
-0.00383481
-0.00310104
-0.00169454
0.000337803
0.00289951
0.00582493
0.0089437
0.0120472
0.014902
0.0172988
0.0190908
0.020216
0.0207036
0.0206623
0.020234
0.0195149
0.0185303
0.0173005
0.015746
0.0138038
0.0113491
0.0082523
0.00442209
0.00122319
0.00189017
0.00318895
0.00507533
0.00743827
0.0101462
0.0130524
0.0159727
0.0187104
0.0210908
0.0229781
0.0242892
0.025002
0.0251517
0.0248069
0.0240289
0.022851
0.0213074
0.0192813
0.0168322
0.0138773
0.0103422
0.00618358
0.00421769
0.00482059
0.00603322
0.00778788
0.0099737
0.0124934
0.0152101
0.0179585
0.0205726
0.0229024
0.0248207
0.0262335
0.0270902
0.0273838
0.0271366
0.0263797
0.0251316
0.0233805
0.0212285
0.0185649
0.0153916
0.011683
0.00743074
0.00543648
0.00599143
0.00713581
0.00877262
0.0108142
0.0131799
0.0157362
0.0183377
0.0208442
0.0231228
0.0250519
0.0265327
0.0274995
0.0279205
0.0277893
0.0271157
0.0259156
0.0242009
0.0220136
0.019298
0.0160972
0.0124054
0.00823253
0.00514857
0.00567496
0.00675796
0.0082973
0.0102301
0.0124736
0.0149016
0.0173901
0.0198175
0.0220611
0.0240034
0.0255453
0.0266138
0.0271625
0.0271675
0.0266243
0.0255437
0.0239488
0.0219075
0.0192361
0.0161489
0.0126141
0.00864861
0.00357833
0.00408747
0.00511498
0.00658525
0.00844109
0.0105926
0.0129287
0.0153434
0.0177254
0.0199573
0.0219263
0.0235363
0.0247116
0.0253976
0.0255594
0.0251821
0.0242667
0.0228181
0.0208157
0.0184893
0.0156595
0.0123904
0.00872679
0.000926719
0.00142054
0.00240528
0.0038317
0.00563262
0.00771967
0.00999982
0.0123776
0.0147454
0.0169901
0.0190053
0.020699
0.0219952
0.0228347
0.0231764
0.0229992
0.022301
0.0210935
0.0193986
0.0172857
0.0147422
0.0117999
0.00850321
-0.00258863
-0.00210943
-0.00115146
0.000242735
0.00200021
0.00404386
0.00629427
0.00865942
0.0110339
0.0133103
0.0153896
0.017184
0.0186176
0.0196282
0.0201712
0.0202226
0.0197779
0.0188499
0.017463
0.0156536
0.0134474
0.0108809
0.00800029
-0.00683542
-0.00636752
-0.00542077
-0.00405177
-0.00232277
-0.000299182
0.00194489
0.00431743
0.00671662
0.00904253
0.0112028
0.0131131
0.0146977
0.0158932
0.0166537
0.0169532
0.0167852
0.0161597
0.0150991
0.0136354
0.0118066
0.00965394
0.0072288
-0.0118554
-0.0114022
-0.0104563
-0.0090988
-0.00737132
-0.00533484
-0.00306453
-0.000652288
0.00180496
0.00421354
0.00648525
0.00853721
0.0102941
0.0116927
0.0126874
0.0132513
0.0133763
0.0130701
0.0123534
0.0112577
0.00983371
0.00812492
0.00618815
-0.0175758
-0.0171489
-0.0162082
-0.0148533
-0.0131091
-0.0110387
-0.00871954
-0.00624112
-0.00369529
-0.0011718
0.00124252
0.00346485
0.00542003
0.0070456
0.00829588
0.00914341
0.00957811
0.00960577
0.00924659
0.00853638
0.00752821
0.00628459
0.00486379
-0.0237476
-0.0233662
-0.0224466
-0.0210932
-0.0193292
-0.0172229
-0.0148519
-0.0123017
-0.00965931
-0.00701214
-0.00444626
-0.00204394
0.000120567
0.00198545
0.0035045
0.00464831
0.00540396
0.00577458
0.00577973
0.0054569
0.00487083
0.00411028
0.00323256
-0.0305682
-0.0303562
-0.0294517
-0.028075
-0.0262701
-0.0241081
-0.0216637
-0.0190171
-0.0162526
-0.0134558
-0.0107118
-0.00810176
-0.00569881
-0.00356486
-0.001748
-0.000281142
0.000818407
0.00154924
0.00192577
0.00197559
0.00179171
0.00153141
0.00123098
203.748
-2.07067
-2.67406
-2.9991
350.027
13.281
-1.53352
-2.18392
429.764
118.272
-1.93706
-2.72071
299.86
224.899
10.3208
-4.84857
24.1787
175.997
65.5232
-5.28119
2.06493
14.1638
73.9454
36.3409
1.2059
1.94402
16.0028
30.53
1.07802
1.32994
1.91392
2.5672
0.974559
1.12902
1.39176
1.55952
0.807515
0.900517
1.00383
1.07228
0.648609
0.706646
0.755344
0.781912
0.502646
0.541716
0.571393
0.586213
0.373316
0.403352
0.425276
0.436667
0.26368
0.290231
0.309298
0.319696
0.173158
0.19836
0.216506
0.227198
0.101968
0.126215
0.143868
0.154985
0.0495627
0.0722362
0.0889258
0.0999143
0.0141795
0.0342801
0.0492164
0.0593481
-0.00708528
0.00965293
0.0221837
0.030835
-0.0178798
-0.00483015
0.00496396
0.0117675
-0.021802
-0.01229
-0.00521269
-0.000376392
-0.0217061
-0.0152673
-0.0106155
-0.00761582
-0.0194934
-0.0155533
-0.0129146
-0.0114864
-0.0163084
-0.0143164
-0.0132717
-0.0131166
-0.0128125
-0.0122932
-0.012467
-0.0133007
-0.00937678
-0.00993857
-0.0110131
-0.012584
-0.00620076
-0.00752965
-0.0092439
-0.011338
-0.00338417
-0.00523223
-0.00737586
-0.0098158
-0.000968634
-0.00314249
-0.00554808
-0.00818928
0.00103927
-0.00131113
-0.00384678
-0.00657291
0.00265389
0.000241491
-0.00232135
-0.00504006
0.00390181
0.00151475
-0.000995967
-0.00363533
0.00481537
0.00251946
0.000120943
-0.00238423
0.00542611
0.00327042
0.00102905
-0.0013007
0.00576049
0.00378165
0.00173123
-0.000391982
0.00583861
0.0040645
0.0022311
0.000338441
0.00567326
0.00412624
0.00253083
0.000887785
0.00526937
0.00396807
0.00262798
0.00125003
0.0046221
0.0035823
0.00251228
0.00141279
0.00371352
0.00294928
0.00216307
0.00135535
0.00252136
0.00204783
0.0015607
0.00106015
0.000985884
0.000821777
0.000652486
0.000478184
-2.68411
-2.61192
-2.60609
-2.50539
-2.36399
-2.20617
-2.05424
-1.91744
-1.79809
-1.69606
-1.60952
-1.53685
-1.47714
-1.4276
-1.3877
-1.35797
-1.33527
-1.32046
-1.31317
-2.8944
-3.10289
-2.99066
-2.75058
-2.49671
-2.26344
-2.06526
-1.90247
-1.76904
-1.66065
-1.57147
-1.49782
-1.44086
-1.39234
-1.35405
-1.32503
-1.30374
-1.28983
-1.28305
-3.91542
-4.0848
-3.67562
-3.10001
-2.64762
-2.30767
-2.05526
-1.86817
-1.72241
-1.61118
-1.52172
-1.45022
-1.39391
-1.34855
-1.31287
-1.28575
-1.26616
-1.25334
-1.24728
-6.05898
-5.8578
-4.62994
-3.48458
-2.75572
-2.30425
-2.00246
-1.80726
-1.65499
-1.54285
-1.45722
-1.39058
-1.33834
-1.29705
-1.2648
-1.24037
-1.22303
-1.21047
-1.20411
-7.65131
-6.92864
-5.1638
-3.66506
-2.71879
-2.21699
-1.90099
-1.6983
-1.55679
-1.45469
-1.37842
-1.31992
-1.27429
-1.23845
-1.21056
-1.18935
-1.17294
-1.16324
-1.15823
-5.16425
-6.60534
-5.10696
-3.49602
-2.48724
-2.00165
-1.72255
-1.54765
-1.43104
-1.34828
-1.28681
-1.23973
-1.20284
-1.17376
-1.15109
-1.13318
-1.12055
-1.11247
-1.10844
15.9877
-0.672356
-4.28843
-2.90033
-2.02638
-1.66258
-1.47874
-1.36237
-1.28415
-1.22805
-1.18554
-1.15245
-1.12574
-1.10436
-1.08721
-1.07419
-1.06473
-1.05858
-1.05553
9.93195
5.75725
-1.16032
-1.70967
-1.38334
-1.25736
-1.20302
-1.16047
-1.12711
-1.10073
-1.07901
-1.0614
-1.04497
-1.03179
-1.0211
-1.01271
-1.00648
-1.00237
-1.00032
1.19835
1.45776
0.13207
-0.712147
-0.839822
-0.902108
-0.945906
-0.965623
-0.972757
-0.973914
-0.971503
-0.966649
-0.962744
-0.958117
-0.953683
-0.949845
-0.946817
-0.944731
-0.943667
1.01747
0.614155
0.150524
-0.266362
-0.503743
-0.641877
-0.734569
-0.793762
-0.830832
-0.854153
-0.868526
-0.877034
-0.882283
-0.885078
-0.886347
-0.886749
-0.886724
-0.886556
-0.886428
0.768456
0.549778
0.233787
-0.0654375
-0.293773
-0.454822
-0.569743
-0.650419
-0.706508
-0.745582
-0.772782
-0.791694
-0.80493
-0.814078
-0.820307
-0.824457
-0.827116
-0.82868
-0.8294
0.580356
0.449031
0.242523
0.0189275
-0.175366
-0.328766
-0.446712
-0.535465
-0.601381
-0.650109
-0.686042
-0.712506
-0.731989
-0.746246
-0.756555
-0.763849
-0.768794
-0.771848
-0.773302
0.43679
0.355618
0.212275
0.0460276
-0.111269
-0.246395
-0.357232
-0.445517
-0.514551
-0.567962
-0.609013
-0.640415
-0.664324
-0.682386
-0.695843
-0.705625
-0.712413
-0.716683
-0.718741
0.322338
0.269036
0.169013
0.0458726
-0.0791622
-0.193804
-0.293112
-0.376104
-0.443842
-0.498279
-0.541557
-0.575675
-0.602349
-0.62298
-0.638674
-0.65029
-0.658473
-0.663677
-0.666202
0.232663
0.197332
0.126148
0.0337806
-0.0652175
-0.16077
-0.247402
-0.322805
-0.386637
-0.439631
-0.482998
-0.518072
-0.546112
-0.568224
-0.58533
-0.598171
-0.607319
-0.613186
-0.616045
0.162947
0.139585
0.0878291
0.0175399
-0.061105
-0.1402
-0.214671
-0.28176
-0.340356
-0.390391
-0.432379
-0.467098
-0.495398
-0.518092
-0.5359
-0.549429
-0.559158
-0.565441
-0.568515
0.109148
0.0937399
0.055403
0.00104316
-0.0619055
-0.127332
-0.190884
-0.249825
-0.3027
-0.348962
-0.38864
-0.422092
-0.449826
-0.472396
-0.490332
-0.5041
-0.514083
-0.520566
-0.523749
0.0685812
0.0581734
0.0290952
-0.0138287
-0.0647372
-0.119029
-0.173132
-0.224546
-0.271732
-0.313889
-0.350739
-0.382336
-0.408928
-0.430853
-0.448471
-0.462121
-0.472088
-0.478596
-0.4818
0.0389319
0.0313106
0.00857744
-0.0263946
-0.0679865
-0.113268
-0.15936
-0.204066
-0.245888
-0.283924
-0.317718
-0.347126
-0.372205
-0.393123
-0.4101
-0.423358
-0.433102
-0.439492
-0.442648
0.0180324
0.0116695
-0.00622847
-0.0369581
-0.070792
-0.108759
-0.148149
-0.187009
-0.223937
-0.258026
-0.28874
-0.315814
-0.33917
-0.35885
-0.374961
-0.387633
-0.396997
-0.403164
-0.406217
0.00372118
-0.00260708
-0.0185475
-0.0429382
-0.0723058
-0.104654
-0.138531
-0.172386
-0.204941
-0.235363
-0.263101
-0.287824
-0.309365
-0.327677
-0.342781
-0.354736
-0.363613
-0.36948
-0.372392
-0.00566453
-0.0123493
-0.0266663
-0.0474035
-0.0725354
-0.100517
-0.129872
-0.159504
-0.188192
-0.215274
-0.240215
-0.262654
-0.282374
-0.299265
-0.313288
-0.324446
-0.332766
-0.338285
-0.341028
-0.0114362
-0.0186421
-0.0317956
-0.0499915
-0.0718536
-0.0961388
-0.121634
-0.147957
-0.17317
-0.197238
-0.219604
-0.239879
-0.257828
-0.273299
-0.286214
-0.296539
-0.304266
-0.309409
-0.311965
-0.0146366
-0.0223574
-0.0346894
-0.0509865
-0.0702661
-0.0915897
-0.114053
-0.13696
-0.159403
-0.18083
-0.200878
-0.219137
-0.235404
-0.249494
-0.261311
-0.270798
-0.277919
-0.282676
-0.285037
-0.0160505
-0.0241855
-0.035885
-0.050694
-0.0678898
-0.0867618
-0.106605
-0.126785
-0.146654
-0.165702
-0.183752
-0.200124
-0.214825
-0.227595
-0.23835
-0.247018
-0.253539
-0.257912
-0.260077
-0.0162475
-0.0246545
-0.0358111
-0.0493942
-0.0648645
-0.0816809
-0.0992889
-0.117165
-0.134809
-0.151804
-0.167838
-0.182533
-0.19587
-0.207377
-0.217119
-0.225008
-0.230946
-0.234947
-0.236916
-0.0156372
-0.0241622
-0.034805
-0.0473314
-0.0613344
-0.0763993
-0.0920894
-0.107982
-0.123677
-0.138824
-0.153127
-0.166316
-0.178222
-0.188617
-0.197424
-0.204601
-0.209971
-0.213623
-0.215388
-0.014514
-0.0230076
-0.033131
-0.0447096
-0.0574325
-0.0709788
-0.0850041
-0.0991682
-0.113146
-0.126645
-0.139405
-0.1512
-0.161853
-0.171199
-0.179135
-0.185585
-0.190453
-0.193774
-0.195341
-0.013089
-0.0214153
-0.0309958
-0.041696
-0.0532748
-0.0654815
-0.0780425
-0.0906838
-0.10314
-0.115165
-0.126538
-0.137065
-0.146584
-0.154955
-0.162076
-0.167866
-0.172255
-0.175229
-0.176655
-0.0115122
-0.0195532
-0.0285603
-0.038426
-0.0489604
-0.0599649
-0.0712206
-0.0825056
-0.0936021
-0.104305
-0.114426
-0.123799
-0.132282
-0.139754
-0.146118
-0.151297
-0.155232
-0.157888
-0.15918
-0.00988887
-0.0175458
-0.0259484
-0.0350076
-0.0445712
-0.0544796
-0.0645559
-0.074619
-0.0844894
-0.0939959
-0.10298
-0.111301
-0.118835
-0.125477
-0.131139
-0.135753
-0.13926
-0.141624
-0.142787
-0.00829133
-0.0154844
-0.0232546
-0.0315257
-0.0401734
-0.0490674
-0.0580633
-0.0670122
-0.0757657
-0.0841816
-0.0921273
-0.0994833
-0.106144
-0.112019
-0.117032
-0.121118
-0.124227
-0.12632
-0.127362
-0.00676881
-0.0134352
-0.0205494
-0.0280445
-0.0358169
-0.0437591
-0.051752
-0.0596725
-0.0673981
-0.0748106
-0.0818001
-0.0882666
-0.0941213
-0.0992863
-0.103695
-0.10729
-0.110026
-0.111868
-0.112796
-0.00535423
-0.0114452
-0.0178838
-0.0246101
-0.0315373
-0.0385753
-0.0456252
-0.0525855
-0.059355
-0.0658366
-0.0719396
-0.0775814
-0.0826875
-0.0871919
-0.091037
-0.0941736
-0.0965615
-0.0981677
-0.0989896
-0.00406912
-0.00954628
-0.0152926
-0.0212541
-0.0273574
-0.0335268
-0.0396803
-0.0457344
-0.0516063
-0.0572168
-0.0624919
-0.0673637
-0.0717707
-0.0756574
-0.0789749
-0.0816811
-0.0837416
-0.0851265
-0.0858478
-0.00292749
-0.00775991
-0.0127991
-0.0179969
-0.023291
-0.0286182
-0.0339112
-0.0391018
-0.0441231
-0.0489113
-0.0534067
-0.0575543
-0.0613036
-0.0646088
-0.0674291
-0.0697293
-0.0714807
-0.072656
-0.0732812
-0.0019398
-0.00610165
-0.01042
-0.0148521
-0.0193463
-0.0238502
-0.0283095
-0.0326695
-0.0368772
-0.0408819
-0.0446365
-0.0480967
-0.0512221
-0.0539755
-0.0563239
-0.0582385
-0.0596961
-0.0606718
-0.0612044
-0.00111717
-0.00458546
-0.00816879
-0.0118306
-0.0155287
-0.0192213
-0.0228655
-0.0264189
-0.0298405
-0.0330912
-0.0361345
-0.038936
-0.0414641
-0.0436895
-0.0455862
-0.0471319
-0.0483084
-0.0490925
-0.0495349
-0.000474052
-0.00322598
-0.00605816
-0.00894074
-0.0118411
-0.0147274
-0.0175674
-0.0203296
-0.0229838
-0.0255012
-0.0278545
-0.0300182
-0.0319687
-0.0336841
-0.0351451
-0.036335
-0.0372407
-0.0378395
-0.0381931
-2.95363e-05
-0.00203961
-0.00410054
-0.00619005
-0.00828502
-0.0103631
-0.0124021
-0.0143806
-0.0162779
-0.0180743
-0.0197511
-0.021291
-0.0226776
-0.0238959
-0.0249328
-0.0257767
-0.0264192
-0.0268379
-0.0271023
0.000202158
-0.00103545
-0.00229968
-0.0035766
-0.00485242
-0.00611401
-0.0073485
-0.0085435
-0.00968711
-0.010768
-0.0117756
-0.0126996
-0.0135307
-0.0142603
-0.0148807
-0.0153853
-0.0157702
-0.0160131
-0.0161862
0.000179314
-0.000249326
-0.000685899
-0.00112505
-0.00156197
-0.0019922
-0.00241151
-0.00281591
-0.00320165
-0.00356519
-0.0039032
-0.00421254
-0.00449028
-0.00473374
-0.00494051
-0.00510842
-0.00523735
-0.00531467
-0.00537809
)
;

boundaryField
{
    leftWall
    {
        type            fixedFluxPressure;
        gradient        uniform 0;
        value           nonuniform List<scalar> 
50
(
2528.72
2527.41
2524.8
2520.89
2515.73
2509.33
2501.75
2493.04
2477.79
2452.71
2424.1
2392.77
2359.56
2325.34
2290.95
2257.03
2224.4
2193.97
2165.52
2138.72
1916.16
437.646
-0.308765
-0.308287
-0.298609
-0.279814
-0.252993
-0.22136
-0.18806
-0.154917
-0.123632
-0.0954863
-0.0711692
-0.0509002
-0.0344188
-0.021329
-0.0112492
-0.00383481
0.00122319
0.00421769
0.00543648
0.00514857
0.00357833
0.000926719
-0.00258863
-0.00683542
-0.0118554
-0.0175758
-0.0237476
-0.0305682
)
;
    }
    rightWall
    {
        type            fixedFluxPressure;
        gradient        uniform 0;
        value           nonuniform List<scalar> 
50
(
-1.37078
-1.36934
-1.36648
-1.36218
-1.35645
-1.34931
-1.34077
-1.33085
-1.31317
-1.28305
-1.24728
-1.20411
-1.15823
-1.10844
-1.05553
-1.00032
-0.943667
-0.886428
-0.8294
-0.773302
-0.718741
-0.666202
-0.616045
-0.568515
-0.523749
-0.4818
-0.442648
-0.406217
-0.372392
-0.341028
-0.311965
-0.285037
-0.260077
-0.236916
-0.215388
-0.195341
-0.176655
-0.15918
-0.142787
-0.127362
-0.112796
-0.0989896
-0.0858478
-0.0732812
-0.0612044
-0.0495349
-0.0381931
-0.0271023
-0.0161862
-0.00537809
)
;
    }
    lowerWall
    {
        type            fixedFluxPressure;
        gradient        uniform 0;
        value           nonuniform List<scalar> 
62
(
2528.72
2533.08
2528.33
2517.4
2502.68
2484.43
2462.05
2435.11
2403.4
2366.91
2326.13
2282.4
2238.42
2199.11
2172.98
2174.01
2224.03
2358.4
2603.07
2979.72
3440.52
3838.93
4083.04
4083.04
4158.93
4214.51
4208.52
4106.18
3841.85
3358.74
2539.1
203.748
-2.07067
-2.67406
-2.9991
-2.17526
-2.17497
-2.1778
-2.18368
-2.19614
-2.22045
-2.27553
-2.37326
-2.17526
-2.20035
-2.21503
-2.1997
-2.15549
-2.08767
-2.00583
-1.91799
-1.83032
-1.74698
-1.67054
-1.6024
-1.54312
-1.49289
-1.45156
-1.41894
-1.39473
-1.37875
-1.37078
)
;
    }
    atmosphere
    {
        type            totalPressure;
        rho             rho;
        psi             none;
        gamma           1;
        p0              uniform 0;
        value           nonuniform List<scalar> 
46
(
-0.0343086
-0.0344052
-0.0334571
-0.0320384
-0.0301937
-0.0279863
-0.0254866
-0.0227725
-0.0199268
-0.017035
-0.0141819
-0.0114479
-0.0089057
-0.00661774
-0.00463339
-0.00298772
-0.00170107
-0.000779751
-0.000218197
-3.36572e-06
0
0
0
0
0
0
0
0
0
0
0
0
0
0
0
0
0
0
0
0
0
0
0
0
0
0
)
;
    }
    defaultFaces
    {
        type            empty;
    }
}


// ************************************************************************* //
