/*--------------------------------*- C++ -*----------------------------------*\
| =========                 |                                                 |
| \\      /  F ield         | OpenFOAM: The Open Source CFD Toolbox           |
|  \\    /   O peration     | Version:  5.x                                   |
|   \\  /    A nd           | Web:      www.OpenFOAM.org                      |
|    \\/     M anipulation  |                                                 |
\*---------------------------------------------------------------------------*/
FoamFile
{
    version     2.0;
    format      ascii;
    class       surfaceScalarField;
    location    "0.15";
    object      phi;
}
// * * * * * * * * * * * * * * * * * * * * * * * * * * * * * * * * * * * * * //

dimensions      [0 3 -1 0 0 0 0];

internalField   nonuniform List<scalar> 
4432
(
4.2926e-06
-4.2926e-06
1.1101e-05
-6.80839e-06
1.78567e-05
-6.75571e-06
2.42652e-05
-6.40844e-06
3.06052e-05
-6.34008e-06
3.70923e-05
-6.48704e-06
4.38309e-05
-6.73858e-06
5.08599e-05
-7.02905e-06
5.81905e-05
-7.33057e-06
6.5816e-05
-7.62555e-06
7.37064e-05
-7.8904e-06
8.1797e-05
-8.09054e-06
8.99521e-05
-8.15514e-06
9.79116e-05
-7.95945e-06
0.000105254
-7.34235e-06
0.000111357
-6.10355e-06
0.000115163
-3.80571e-06
0.000114506
6.57351e-07
0.000104753
9.75328e-06
8.03887e-05
2.43638e-05
4.1134e-05
3.92548e-05
1.16873e-06
3.99652e-05
1.16874e-06
4.32647e-06
-8.61906e-06
1.11174e-05
-1.35994e-05
1.78751e-05
-1.35133e-05
2.42954e-05
-1.28288e-05
3.06429e-05
-1.26876e-05
3.71381e-05
-1.29823e-05
4.38865e-05
-1.34869e-05
5.09266e-05
-1.40692e-05
5.82717e-05
-1.46757e-05
6.59169e-05
-1.52708e-05
7.38315e-05
-1.58049e-05
8.19565e-05
-1.62156e-05
9.01755e-05
-1.63741e-05
9.82558e-05
-1.60397e-05
0.000105803
-1.48896e-05
0.000112212
-1.25128e-05
0.00011666
-8.25327e-06
0.000118459
-1.14235e-06
0.000117142
1.10708e-05
0.000109198
3.23078e-05
8.56575e-05
6.27953e-05
4.19265e-05
8.36962e-05
4.30952e-05
4.35114e-06
-1.29702e-05
1.11007e-05
-2.03489e-05
1.78141e-05
-2.02267e-05
2.42047e-05
-1.92195e-05
3.05303e-05
-1.90132e-05
3.70093e-05
-1.94612e-05
4.37454e-05
-2.02231e-05
5.07768e-05
-2.11005e-05
5.81197e-05
-2.20186e-05
6.57731e-05
-2.29242e-05
7.37128e-05
-2.37447e-05
8.18931e-05
-2.43959e-05
9.02179e-05
-2.46989e-05
9.84866e-05
-2.43084e-05
0.000106355
-2.27579e-05
0.000113294
-1.94519e-05
0.000118516
-1.34747e-05
0.000120648
-3.27442e-06
0.000118125
1.35937e-05
0.000110164
4.02687e-05
9.39429e-05
7.90161e-05
5.73614e-05
0.000120278
0.000100457
4.38278e-06
-1.7353e-05
1.10842e-05
-2.70503e-05
1.77328e-05
-2.68753e-05
2.40758e-05
-2.55624e-05
3.03704e-05
-2.53078e-05
3.68292e-05
-2.592e-05
4.35515e-05
-2.69453e-05
5.05749e-05
-2.8124e-05
5.79201e-05
-2.93637e-05
6.55923e-05
-3.05963e-05
7.35794e-05
-3.17318e-05
8.18541e-05
-3.26706e-05
9.03429e-05
-3.31877e-05
9.88859e-05
-3.28514e-05
0.000107218
-3.109e-05
0.000114906
-2.714e-05
0.000121179
-1.9748e-05
0.000124776
-6.8713e-06
0.000123657
1.47127e-05
0.000114968
4.8958e-05
9.66015e-05
9.73825e-05
6.14419e-05
0.000155437
0.000161899
4.42183e-06
-2.17748e-05
1.10661e-05
-3.36946e-05
1.76309e-05
-3.34401e-05
2.39102e-05
-3.18417e-05
3.01662e-05
-3.15638e-05
3.66019e-05
-3.23557e-05
4.33093e-05
-3.36527e-05
5.03257e-05
-3.51404e-05
5.76771e-05
-3.67152e-05
6.53771e-05
-3.82963e-05
7.34298e-05
-3.97845e-05
8.18299e-05
-4.10708e-05
9.05255e-05
-4.18833e-05
9.9408e-05
-4.17339e-05
0.000108324
-4.00059e-05
0.000116954
-3.57705e-05
0.000124588
-2.73814e-05
0.000130059
-1.2343e-05
0.000131528
1.32444e-05
0.000125183
5.53027e-05
0.000104318
0.000118247
6.62955e-05
0.00019346
0.000228194
4.47264e-06
-2.62474e-05
1.10467e-05
-4.02686e-05
1.75071e-05
-3.99006e-05
2.37086e-05
-3.80432e-05
2.99193e-05
-3.77744e-05
3.6328e-05
-3.87644e-05
4.30167e-05
-4.03415e-05
5.00224e-05
-4.21461e-05
5.73773e-05
-4.407e-05
6.51044e-05
-4.60234e-05
7.32281e-05
-4.79082e-05
8.17664e-05
-4.96091e-05
9.06876e-05
-5.08044e-05
9.99428e-05
-5.09891e-05
0.000109511
-4.95746e-05
0.000119207
-4.54658e-05
0.000128401
-3.65759e-05
0.00013617
-2.01114e-05
0.00014144
7.97451e-06
0.000140171
5.65717e-05
0.00011902
0.000139398
7.58286e-05
0.000236651
0.000304023
4.53632e-06
-3.07838e-05
1.10188e-05
-4.67511e-05
1.7353e-05
-4.62347e-05
2.34633e-05
-4.41535e-05
2.96198e-05
-4.3931e-05
3.59927e-05
-4.51373e-05
4.26526e-05
-4.70014e-05
4.96366e-05
-4.913e-05
5.69838e-05
-5.14172e-05
6.47286e-05
-5.37682e-05
7.2917e-05
-5.60966e-05
8.15888e-05
-5.82809e-05
9.07401e-05
-5.99558e-05
0.000100395
-6.06438e-05
0.000110659
-5.98392e-05
0.000121488
-5.62943e-05
0.000132417
-4.75046e-05
0.000142992
-3.06863e-05
0.000153278
-2.31148e-06
0.00015927
5.05789e-05
0.00013815
0.000160518
8.82736e-05
0.000286528
0.000392296
4.60477e-06
-3.53885e-05
1.09662e-05
-5.31125e-05
1.71595e-05
-5.24281e-05
2.31674e-05
-5.01614e-05
2.92576e-05
-5.00212e-05
3.55811e-05
-5.14609e-05
4.21972e-05
-5.36175e-05
4.91446e-05
-5.60774e-05
5.64701e-05
-5.87427e-05
6.42205e-05
-6.15186e-05
7.24618e-05
-6.43379e-05
8.12523e-05
-6.70714e-05
9.06286e-05
-6.93321e-05
0.000100701
-7.07161e-05
0.000111666
-7.08038e-05
0.000123628
-6.82572e-05
0.000136485
-6.03609e-05
0.000150199
-4.44004e-05
0.000165896
-1.80092e-05
0.000178146
3.83291e-05
0.000148138
0.000190527
9.14119e-05
0.000343254
0.000483708
-1.12198e-05
1.12198e-05
-1.74288e-05
6.20901e-06
-2.0472e-05
3.04323e-06
-2.08045e-05
3.32397e-07
-1.94893e-05
-1.31521e-06
-1.72676e-05
-2.2218e-06
-1.47065e-05
-2.56101e-06
-1.21508e-05
-2.55589e-06
-9.79923e-06
-2.35149e-06
-7.74311e-06
-2.05628e-06
-6.00931e-06
-1.73376e-06
-4.58991e-06
-1.41956e-06
-3.454e-06
-1.13583e-06
-2.52683e-06
-9.27268e-07
-1.81412e-06
-7.12591e-07
-1.23474e-06
-5.7949e-07
-7.66224e-07
-4.68493e-07
-3.70435e-07
-3.95787e-07
-3.70435e-07
-1.28616e-05
2.40815e-05
-1.86376e-05
1.1985e-05
-2.09734e-05
5.37893e-06
-2.08531e-05
2.1204e-07
-1.92471e-05
-2.92134e-06
-1.67719e-05
-4.69719e-06
-1.39918e-05
-5.34092e-06
-1.12927e-05
-5.25526e-06
-8.85753e-06
-4.78656e-06
-6.78972e-06
-4.12428e-06
-5.09239e-06
-3.43093e-06
-3.73801e-06
-2.77409e-06
-2.68224e-06
-2.19135e-06
-1.88774e-06
-1.72206e-06
-1.2826e-06
-1.31786e-06
-8.39079e-07
-1.02317e-06
-5.08882e-07
-7.98666e-07
-2.44213e-07
-6.60806e-07
-6.14616e-07
-1.40047e-05
3.80862e-05
-1.98377e-05
1.78179e-05
-2.19428e-05
7.48398e-06
-2.14775e-05
-2.53418e-07
-1.95856e-05
-4.81312e-06
-1.69325e-05
-7.3505e-06
-1.405e-05
-8.22324e-06
-1.13064e-05
-7.99889e-06
-8.86032e-06
-7.23247e-06
-6.79038e-06
-6.19432e-06
-5.09541e-06
-5.12571e-06
-3.74492e-06
-4.12498e-06
-2.69564e-06
-3.24081e-06
-1.8965e-06
-2.52152e-06
-1.2959e-06
-1.91854e-06
-8.48542e-07
-1.47077e-06
-5.12037e-07
-1.13521e-06
-2.47863e-07
-9.25161e-07
-8.62427e-07
-1.65149e-05
5.46011e-05
-2.21874e-05
2.34904e-05
-2.35248e-05
8.82122e-06
-2.24025e-05
-1.37583e-06
-2.00695e-05
-7.14594e-06
-1.71071e-05
-1.0313e-05
-1.40683e-05
-1.12619e-05
-1.11896e-05
-1.08778e-05
-8.70675e-06
-9.71525e-06
-6.63715e-06
-8.26427e-06
-4.95736e-06
-6.80557e-06
-3.61998e-06
-5.46259e-06
-2.59286e-06
-4.26761e-06
-1.83119e-06
-3.28311e-06
-1.23453e-06
-2.51527e-06
-8.05645e-07
-1.89999e-06
-4.88633e-07
-1.45225e-06
-2.3214e-07
-1.18169e-06
-1.09454e-06
-2.05752e-05
7.51763e-05
-2.55682e-05
2.84835e-05
-2.56965e-05
8.9495e-06
-2.36235e-05
-3.44902e-06
-2.06735e-05
-1.0096e-05
-1.7301e-05
-1.36856e-05
-1.39859e-05
-1.45771e-05
-1.10012e-05
-1.38628e-05
-8.49712e-06
-1.22193e-05
-6.3915e-06
-1.03701e-05
-4.72361e-06
-8.4731e-06
-3.43951e-06
-6.74664e-06
-2.42067e-06
-5.28633e-06
-1.67703e-06
-4.02698e-06
-1.12752e-06
-3.06488e-06
-7.38936e-07
-2.28868e-06
-4.32199e-07
-1.75891e-06
-2.06362e-07
-1.40752e-06
-1.30089e-06
-2.55356e-05
0.000100712
-2.96375e-05
3.25853e-05
-2.84878e-05
7.79977e-06
-2.52202e-05
-6.71678e-06
-2.13917e-05
-1.39245e-05
-1.75375e-05
-1.754e-05
-1.3882e-05
-1.82325e-05
-1.07721e-05
-1.69728e-05
-8.13619e-06
-1.4855e-05
-6.04646e-06
-1.24598e-05
-4.40858e-06
-1.01109e-05
-3.15121e-06
-8.00418e-06
-2.22616e-06
-6.21154e-06
-1.50285e-06
-4.75065e-06
-1.00829e-06
-3.55954e-06
-6.31198e-07
-2.66578e-06
-3.68823e-07
-2.02118e-06
-1.75664e-07
-1.60071e-06
-1.47656e-06
-3.3534e-05
0.000134246
-3.50383e-05
3.40894e-05
-3.19968e-05
4.75838e-06
-2.73342e-05
-1.13795e-05
-2.23308e-05
-1.89277e-05
-1.77034e-05
-2.21675e-05
-1.37371e-05
-2.21984e-05
-1.03787e-05
-2.03312e-05
-7.74048e-06
-1.74931e-05
-5.67625e-06
-1.45241e-05
-4.07183e-06
-1.17153e-05
-2.83491e-06
-9.2413e-06
-1.94036e-06
-7.10616e-06
-1.30664e-06
-5.38458e-06
-8.3109e-07
-4.03515e-06
-5.1788e-07
-2.97904e-06
-3.02023e-07
-2.237e-06
-1.40579e-07
-1.76222e-06
-1.61714e-06
-4.17897e-05
0.000176036
-4.31976e-05
3.54971e-05
-3.63193e-05
-2.11997e-06
-2.97906e-05
-1.79082e-05
-2.33547e-05
-2.53635e-05
-1.79451e-05
-2.75771e-05
-1.34607e-05
-2.66828e-05
-9.95288e-06
-2.3839e-05
-7.2174e-06
-2.02285e-05
-5.14766e-06
-1.6594e-05
-3.59986e-06
-1.32632e-05
-2.46255e-06
-1.03787e-05
-1.64063e-06
-7.92804e-06
-1.05234e-06
-5.97289e-06
-6.53355e-07
-4.4341e-06
-3.84629e-07
-3.24782e-06
-2.08807e-07
-2.41282e-06
-9.67417e-08
-1.87433e-06
-1.71387e-06
9.85806e-06
-4.52466e-05
2.30925e-05
-6.6347e-05
3.56994e-05
-6.5035e-05
4.80531e-05
-6.25151e-05
6.07321e-05
-6.27002e-05
7.39526e-05
-6.46814e-05
8.78075e-05
-6.74725e-05
0.000102389
-7.06589e-05
0.000117824
-7.4178e-05
0.000134253
-7.79469e-05
0.000151866
-8.19513e-05
0.000170836
-8.60414e-05
0.000191397
-8.9893e-05
0.000214005
-9.33244e-05
0.000239088
-9.58866e-05
0.000267221
-9.63902e-05
0.000300127
-9.32672e-05
0.000338429
-8.27024e-05
0.000372907
-5.24866e-05
0.000362715
4.85209e-05
0.000293796
0.000259445
0.000222902
0.000414148
0.00055187
0.000154741
9.985e-06
-5.52316e-05
2.25295e-05
-7.88915e-05
3.43786e-05
-7.68841e-05
4.6158e-05
-7.42944e-05
5.83928e-05
-7.4935e-05
7.1216e-05
-7.75046e-05
8.46878e-05
-8.09443e-05
9.89151e-05
-8.48861e-05
0.000114061
-8.9324e-05
0.000130311
-9.41969e-05
0.000147906
-9.95465e-05
0.000167088
-0.000105223
0.000188271
-0.000111076
0.000211984
-0.000117038
0.000238648
-0.00012255
0.000269327
-0.00012707
0.000304382
-0.000128322
0.000339841
-0.000118162
0.000359139
-7.17844e-05
0.000321983
8.56772e-05
0.000278022
0.000303407
0.000240927
0.000451243
0.000602064
0.000190733
1.00222e-05
-6.52538e-05
2.17402e-05
-9.06094e-05
3.27253e-05
-8.78692e-05
4.38553e-05
-8.54245e-05
5.55435e-05
-8.66232e-05
6.78296e-05
-8.97907e-05
8.0757e-05
-9.38717e-05
9.44506e-05
-9.85797e-05
0.000109106
-0.000103979
0.000124929
-0.000110021
0.000142183
-0.000116801
0.000161205
-0.000124244
0.000182433
-0.000132304
0.000206068
-0.000140672
0.000233002
-0.000149485
0.00026445
-0.000158517
0.000298564
-0.000162436
0.000314621
-0.000134219
0.000291105
-4.82686e-05
0.000275091
0.000101691
0.000246357
0.00033214
0.000207894
0.000489705
0.000593349
0.000216609
9.93092e-06
-7.51847e-05
2.06977e-05
-0.000101376
3.07621e-05
-9.79337e-05
4.11758e-05
-9.58381e-05
5.22036e-05
-9.7651e-05
6.38039e-05
-0.000101391
7.60181e-05
-0.000106086
8.89893e-05
-0.000111551
0.000102936
-0.000117926
0.000118056
-0.00012514
0.000134646
-0.000133391
0.000153137
-0.000142735
0.000173629
-0.000152796
0.000196067
-0.000163111
0.000222579
-0.000175996
0.000252639
-0.000188578
0.000269273
-0.00017907
0.0002452
-0.000110145
0.000186621
1.03098e-05
0.000151218
0.000137095
0.000167091
0.000316268
0.000178136
0.00047866
0.000553557
0.000217928
9.69999e-06
-8.48847e-05
1.94027e-05
-0.000111079
2.85081e-05
-0.000107039
3.81363e-05
-0.000105466
4.83811e-05
-0.000107896
5.91421e-05
-0.000112152
7.04689e-05
-0.000117413
8.25205e-05
-0.000123603
9.55261e-05
-0.000130931
0.000109655
-0.000139269
0.000125327
-0.000149063
0.000142885
-0.000160293
0.000161856
-0.000171767
0.00018309
-0.000184345
0.0002076
-0.000200506
0.000230699
-0.000211677
0.000207757
-0.000156128
0.000134486
-3.68747e-05
5.46662e-05
9.01292e-05
2.25147e-05
0.000169246
6.83198e-05
0.000270463
0.000129193
0.000417787
0.000492644
0.000190105
9.32486e-06
-9.42096e-05
1.78706e-05
-0.000119625
2.5992e-05
-0.000115161
3.47622e-05
-0.000114236
4.40995e-05
-0.000117233
5.38716e-05
-0.000121924
6.41415e-05
-0.000127683
7.50796e-05
-0.000134541
8.69066e-05
-0.000142758
9.97827e-05
-0.000152145
0.000114306
-0.000163587
0.000130353
-0.00017634
0.000147518
-0.000188933
0.000168507
-0.000205333
0.000194395
-0.000226394
0.000186311
-0.000203593
0.000122233
-9.20495e-05
2.36294e-05
6.17286e-05
-3.50483e-05
0.000148808
-5.02292e-05
0.000184427
-2.00936e-05
0.000240326
5.71801e-05
0.000340514
0.000410499
0.000139325
8.79732e-06
-0.000103007
1.6128e-05
-0.000126955
2.32536e-05
-0.000122286
3.10927e-05
-0.000122076
3.94064e-05
-0.000125547
4.80569e-05
-0.000130575
5.71201e-05
-0.000136746
6.67693e-05
-0.00014419
7.71849e-05
-0.000153174
8.85668e-05
-0.000163527
0.000101447
-0.000176467
0.00011511
-0.000190002
0.000130898
-0.000204721
0.000149572
-0.000224007
0.000164709
-0.000241531
0.000128063
-0.000166948
3.04695e-05
5.54395e-06
-4.50063e-05
0.000137204
-6.89035e-05
0.000172705
-7.52465e-05
0.00019077
-5.91624e-05
0.000224242
4.55966e-06
0.000276792
0.00032631
8.87485e-05
8.12908e-06
-0.000111136
1.42229e-05
-0.000133049
2.03564e-05
-0.00012842
2.7203e-05
-0.000128922
3.44038e-05
-0.000132748
4.18337e-05
-0.000138005
4.95718e-05
-0.000144484
5.77634e-05
-0.000152381
6.64898e-05
-0.0001619
7.59673e-05
-0.000173005
8.60853e-05
-0.000186585
9.65945e-05
-0.000200511
0.000112493
-0.000220619
0.000133904
-0.000245418
0.000118775
-0.000226402
4.65255e-05
-9.46988e-05
-3.96889e-05
9.17582e-05
-6.41641e-05
0.000161679
-6.65869e-05
0.000175127
-6.65313e-05
0.000190714
-5.54713e-05
0.000213182
-1.68985e-05
0.000238219
0.000266025
4.3386e-05
7.36215e-06
-0.000118498
1.22434e-05
-0.00013793
1.74112e-05
-0.000133587
2.32339e-05
-0.000134745
2.92718e-05
-0.000138786
3.54093e-05
-0.000144142
4.16894e-05
-0.000150764
4.81474e-05
-0.000158839
5.46691e-05
-0.000168422
6.13231e-05
-0.000179659
6.72465e-05
-0.000192509
7.50581e-05
-0.000208323
8.98008e-05
-0.000235362
0.000100402
-0.000256019
7.13106e-05
-0.00019731
-1.12219e-05
-1.21666e-05
-5.33088e-05
0.000133846
-5.21229e-05
0.000160492
-4.92045e-05
0.000172209
-4.59768e-05
0.000187487
-3.72489e-05
0.000204454
-1.72322e-05
0.000218202
0.000233368
1.54242e-05
6.56177e-06
-0.00012506
1.02732e-05
-0.000141642
1.45053e-05
-0.00013782
1.92809e-05
-0.00013952
2.408e-05
-0.000143585
2.87684e-05
-0.00014883
3.3284e-05
-0.000155279
3.74721e-05
-0.000163028
4.10396e-05
-0.000171989
4.40306e-05
-0.00018265
4.64491e-05
-0.000194927
5.5361e-05
-0.000217235
7.09281e-05
-0.000250929
6.36451e-05
-0.000248736
2.26376e-05
-0.000156302
-2.97638e-05
4.02341e-05
-3.82236e-05
0.000142306
-3.05295e-05
0.000152798
-2.96287e-05
0.000171308
-2.64968e-05
0.000184355
-1.96672e-05
0.000197625
-8.07481e-06
0.000206609
0.000215369
9.92435e-06
5.74021e-06
-0.0001308
8.23245e-06
-0.000144134
1.14793e-05
-0.000141066
1.50889e-05
-0.00014313
1.84304e-05
-0.000146926
2.13452e-05
-0.000151745
2.36987e-05
-0.000157633
2.5352e-05
-0.000164681
2.65114e-05
-0.000173149
2.82986e-05
-0.000184437
3.46888e-05
-0.000201317
5.14376e-05
-0.000233984
6.3977e-05
-0.000263468
5.33857e-05
-0.000238144
2.39734e-05
-0.000126891
-2.80524e-06
6.70128e-05
-5.34275e-06
0.000144843
-9.52132e-06
0.000156976
-1.26653e-05
0.000174452
-1.21617e-05
0.000183851
-6.98715e-06
0.00019245
1.82794e-06
0.000197793
0.000201811
1.53853e-05
4.77281e-06
-0.000135573
5.84322e-06
-0.000145205
7.97609e-06
-0.000143199
1.02687e-05
-0.000145423
1.20786e-05
-0.000148736
1.33764e-05
-0.000153043
1.44265e-05
-0.000158683
1.59711e-05
-0.000166226
2.05078e-05
-0.000177685
3.20795e-05
-0.000196009
5.70183e-05
-0.000226256
8.59594e-05
-0.000262925
8.44157e-05
-0.000261925
7.37604e-05
-0.000227489
7.77888e-05
-0.00013092
5.9974e-05
8.48276e-05
3.0194e-05
0.000174623
9.04522e-06
0.000178125
-1.14508e-07
0.000183611
-3.31713e-06
0.000187054
-2.66194e-07
0.000189398
7.57797e-06
0.000189949
0.00018947
1.99194e-05
3.60723e-06
-0.00013918
3.28059e-06
-0.000144878
4.50903e-06
-0.000144428
6.03667e-06
-0.00014695
7.69878e-06
-0.000150398
1.02215e-05
-0.000155566
1.53534e-05
-0.000163815
2.50362e-05
-0.000175908
4.63834e-05
-0.000199033
9.29192e-05
-0.000242544
0.000138378
-0.000271715
0.000147807
-0.000272354
9.59925e-05
-0.00021011
6.67201e-05
-0.000198216
8.45219e-05
-0.000148721
0.000104077
6.52721e-05
5.55772e-05
0.000223123
2.00789e-05
0.000213623
4.86259e-06
0.000198827
-8.09247e-07
0.000192725
8.28248e-07
0.000187761
7.57074e-06
0.000183207
0.000178544
1.84963e-05
2.82985e-06
-0.00014201
2.29979e-06
-0.000144348
4.19677e-06
-0.000146325
7.5676e-06
-0.000150321
1.41666e-05
-0.000156997
2.80153e-05
-0.000169414
4.9424e-05
-0.000185224
7.70214e-05
-0.000203506
0.000109737
-0.000231748
0.000135028
-0.000267835
0.000153986
-0.000290674
0.000150686
-0.000269054
0.000116436
-0.00017586
6.5107e-05
-0.000146887
5.37168e-05
-0.000137331
8.371e-05
3.52789e-05
4.62201e-05
0.000260613
1.52689e-05
0.000244575
-5.35572e-07
0.000214632
-5.37728e-06
0.000197567
-3.53187e-06
0.000185915
2.76402e-06
0.000176911
0.000168897
1.24112e-05
3.26906e-06
-0.000145279
6.66824e-06
-0.000147747
1.21237e-05
-0.00015178
1.93046e-05
-0.000157502
2.96255e-05
-0.000167318
4.12206e-05
-0.000181009
5.5227e-05
-0.00019923
7.39414e-05
-0.00022222
9.65897e-05
-0.000254397
0.000121175
-0.00029242
0.00013992
-0.000309418
0.000143311
-0.000272445
0.000135715
-0.000168264
7.86781e-05
-8.98509e-05
4.40452e-05
-0.000102698
2.6351e-05
5.2973e-05
5.24429e-06
0.000281719
-1.17252e-05
0.000261544
-1.74449e-05
0.000220351
-1.71207e-05
0.000197243
-1.28198e-05
0.000181615
-5.55004e-06
0.000169641
0.000159565
3.78125e-06
2.74676e-06
-0.000148026
6.60397e-06
-0.000151604
1.08107e-05
-0.000155986
1.58397e-05
-0.000162531
2.15557e-05
-0.000173034
2.78027e-05
-0.000187256
3.4792e-05
-0.000206219
4.4023e-05
-0.000231451
5.84295e-05
-0.000268803
7.7415e-05
-0.000311405
9.16495e-05
-0.000323653
8.96615e-05
-0.000270457
8.19224e-05
-0.000160524
6.40636e-05
-7.19922e-05
6.96405e-06
-4.55986e-05
-4.33592e-05
0.000103296
-5.44778e-05
0.000292838
-4.80464e-05
0.000255113
-4.1331e-05
0.000213636
-3.38316e-05
0.000189744
-2.54196e-05
0.000173203
-1.60841e-05
0.000160305
0.000149621
-6.13982e-06
1.25333e-06
-0.000149279
2.78205e-06
-0.000153132
4.22667e-06
-0.000157431
5.74052e-06
-0.000164045
6.7769e-06
-0.00017407
7.20332e-06
-0.000187683
6.84186e-06
-0.000205857
7.08964e-06
-0.000231698
9.36872e-06
-0.000271082
1.11548e-05
-0.000313191
5.46695e-06
-0.000317965
-1.05849e-05
-0.000254405
-1.55103e-05
-0.000155599
-2.80998e-05
-5.94027e-05
-8.47896e-05
1.10912e-05
-0.000140381
0.000158888
-0.000117951
0.000270408
-8.71504e-05
0.000224312
-6.71916e-05
0.000193677
-5.21444e-05
0.000174696
-3.91798e-05
0.000160238
-2.7368e-05
0.000148493
0.000138578
-1.6325e-05
-8.87205e-07
-0.000148392
-1.824e-06
-0.000152196
-3.18753e-06
-0.000156067
-5.07209e-06
-0.00016216
-8.19991e-06
-0.000170942
-1.30868e-05
-0.000182796
-2.05014e-05
-0.000198442
-3.09496e-05
-0.00022125
-4.63773e-05
-0.000255654
-6.88393e-05
-0.000290729
-9.40309e-05
-0.000292774
-0.000114438
-0.000233998
-0.000133345
-0.000136691
-0.000154404
-3.83447e-05
-0.000201388
5.80759e-05
-0.000214373
0.000171873
-0.000160498
0.000216532
-0.000116795
0.000180609
-8.88852e-05
0.000165768
-6.83081e-05
0.000154119
-5.17775e-05
0.000143707
-3.79186e-05
0.000134634
0.000126484
-2.58248e-05
-2.79061e-06
-0.000145601
-5.82713e-06
-0.000149159
-9.53854e-06
-0.000152356
-1.42627e-05
-0.000157436
-2.06948e-05
-0.00016451
-2.97349e-05
-0.000173756
-4.27367e-05
-0.00018544
-6.25742e-05
-0.000201413
-9.3928e-05
-0.0002243
-0.000137018
-0.000247639
-0.000181825
-0.000247967
-0.00021423
-0.000201593
-0.000236926
-0.000113995
-0.000262767
-1.25045e-05
-0.000274956
7.02647e-05
-0.000238234
0.000135151
-0.000173891
0.000152189
-0.000131657
0.000138375
-0.000102239
0.000136349
-7.95927e-05
0.000131473
-6.14702e-05
0.000125585
-4.65631e-05
0.000119727
0.000113797
-3.38759e-05
-4.35163e-06
-0.000141249
-9.14165e-06
-0.000144369
-1.46598e-05
-0.000146838
-2.14272e-05
-0.000150668
-3.01242e-05
-0.000155813
-4.16683e-05
-0.000162211
-5.75035e-05
-0.000169605
-8.09248e-05
-0.000177991
-0.000116968
-0.000188257
-0.000167107
-0.000197499
-0.00022337
-0.000191704
-0.000269424
-0.000155539
-0.00029354
-8.98789e-05
-0.000291895
-1.4149e-05
-0.000269207
4.75761e-05
-0.000220106
8.60506e-05
-0.00016772
9.98028e-05
-0.000134043
0.000104698
-0.000107187
0.000109494
-8.54313e-05
0.000109718
-6.75972e-05
0.000107751
-5.27273e-05
0.000104857
0.000101128
-4.00589e-05
-5.60563e-06
-0.000135644
-1.16821e-05
-0.000138292
-1.84944e-05
-0.000140025
-2.65535e-05
-0.000142609
-3.64646e-05
-0.000145902
-4.89853e-05
-0.00014969
-6.51004e-05
-0.00015349
-8.66483e-05
-0.000156443
-0.000116907
-0.000157999
-0.000157806
-0.0001566
-0.00020376
-0.000145751
-0.00024185
-0.000117448
-0.000259733
-7.19958e-05
-0.000252168
-2.17138e-05
-0.00022493
2.03374e-05
-0.000187697
4.88175e-05
-0.000154254
6.63601e-05
-0.000128886
7.93296e-05
-0.000106165
8.67722e-05
-8.68525e-05
9.04054e-05
-7.04582e-05
9.13566e-05
-5.64236e-05
9.08227e-05
8.90106e-05
-4.4306e-05
-6.47952e-06
-0.000129164
-1.33878e-05
-0.000131384
-2.09877e-05
-0.000132425
-2.96953e-05
-0.000133901
-3.99965e-05
-0.000135601
-5.24451e-05
-0.000137242
-6.76018e-05
-0.000138333
-8.60289e-05
-0.000138016
-0.000108773
-0.000135254
-0.000136772
-0.0001286
-0.000167245
-0.000115278
-0.000192327
-9.23672e-05
-0.000203674
-6.06481e-05
-0.000198771
-2.66176e-05
-0.000180804
2.37084e-06
-0.000159493
2.75059e-05
-0.000139386
4.62526e-05
-0.00012007
6.00137e-05
-0.000101687
6.83889e-05
-8.5259e-05
7.39776e-05
-7.07777e-05
7.68752e-05
-5.80139e-05
7.80588e-05
7.77943e-05
-4.67976e-05
-6.99619e-06
-0.000122168
-1.4363e-05
-0.000124017
-2.23281e-05
-0.00012446
-3.12079e-05
-0.000125021
-4.13508e-05
-0.000125458
-5.31114e-05
-0.000125481
-6.68009e-05
-0.000124643
-8.2519e-05
-0.000122298
-0.00010014
-0.000117633
-0.000119274
-0.000109467
-0.000138333
-9.62188e-05
-0.000153708
-7.69919e-05
-0.000161258
-5.3098e-05
-0.000159715
-2.81608e-05
-0.00015179
-5.55435e-06
-0.000139201
1.49169e-05
-0.000125081
3.21318e-05
-0.000110037
4.49703e-05
-9.54542e-05
5.38056e-05
-8.17795e-05
6.03027e-05
-6.92845e-05
6.43801e-05
-5.79644e-05
6.67386e-05
6.76599e-05
-4.78301e-05
-7.21961e-06
-0.000114948
-1.47492e-05
-0.000116488
-2.27557e-05
-0.000116453
-3.14764e-05
-0.000116301
-4.11381e-05
-0.000115796
-5.1939e-05
-0.00011468
-6.40107e-05
-0.000112572
-7.7339e-05
-0.000108969
-9.16474e-05
-0.000103324
-0.00010619
-9.4924e-05
-0.00011954
-8.2869e-05
-0.000129705
-6.6826e-05
-0.00013487
-4.79339e-05
-0.000134621
-2.84095e-05
-0.000130225
-9.9507e-06
-0.000122233
6.92483e-06
-0.000111755
2.16535e-05
-0.00010011
3.33256e-05
-8.852e-05
4.22154e-05
-7.72248e-05
4.90074e-05
-6.65849e-05
5.37401e-05
-5.67136e-05
5.68673e-05
5.86613e-05
-4.77149e-05
-7.19993e-06
-0.000107749
-1.46547e-05
-0.000109033
-2.24628e-05
-0.000108645
-3.07997e-05
-0.000107964
-3.98028e-05
-0.000106793
-4.95727e-05
-0.00010491
-6.01266e-05
-0.000102018
-7.13495e-05
-9.77463e-05
-8.29466e-05
-9.17273e-05
-9.43101e-05
-8.35603e-05
-0.000104371
-7.28079e-05
-0.000111807
-5.93906e-05
-0.000115659
-4.40817e-05
-0.000115849
-2.82195e-05
-0.000112934
-1.2865e-05
-0.000107239
1.22947e-06
-9.95451e-05
1.39593e-05
-9.06724e-05
2.44528e-05
-8.1426e-05
3.29689e-05
-7.21282e-05
3.97096e-05
-6.31374e-05
4.47493e-05
-5.46236e-05
4.83536e-05
5.07669e-05
-4.67292e-05
-6.99771e-06
-0.000100751
-1.42021e-05
-0.000101829
-2.16532e-05
-0.000101194
-2.94718e-05
-0.000100146
-3.7733e-05
-9.85314e-05
-4.64706e-05
-9.61726e-05
-5.56403e-05
-9.28479e-05
-6.5079e-05
-8.83076e-05
-7.44945e-05
-8.23116e-05
-8.34395e-05
-7.46152e-05
-9.12325e-05
-6.50148e-05
-9.70292e-05
-5.35939e-05
-0.000100195
-4.09158e-05
-0.000100622
-2.77929e-05
-9.85738e-05
-1.49131e-05
-9.44863e-05
-2.85815e-06
-8.86733e-05
8.14619e-06
-8.184e-05
1.76194e-05
-7.44433e-05
2.55722e-05
-6.68122e-05
3.20785e-05
-5.92564e-05
3.71937e-05
-5.19679e-05
4.10653e-05
4.38984e-05
-4.50994e-05
-6.66662e-06
-9.40843e-05
-1.34953e-05
-9.49998e-05
-2.04894e-05
-9.41997e-05
-2.77202e-05
-9.29145e-05
-3.52228e-05
-9.10288e-05
-4.29883e-05
-8.84071e-05
-5.09455e-05
-8.48908e-05
-5.894e-05
-8.03131e-05
-6.67253e-05
-7.45263e-05
-7.39361e-05
-6.74043e-05
-8.00759e-05
-5.88749e-05
-8.46207e-05
-4.90491e-05
-8.7222e-05
-3.83147e-05
-8.77964e-05
-2.72186e-05
-8.64453e-05
-1.62644e-05
-8.3451e-05
-5.85253e-06
-7.90259e-05
3.72104e-06
-7.36776e-05
1.22711e-05
-6.77353e-05
1.963e-05
-6.14759e-05
2.58191e-05
-5.51495e-05
3.08673e-05
-4.89432e-05
3.48591e-05
3.79584e-05
-4.30033e-05
-6.25456e-06
-8.78297e-05
-1.26289e-05
-8.86257e-05
-1.91078e-05
-8.77206e-05
-2.57235e-05
-8.6299e-05
-3.24841e-05
-8.42683e-05
-3.93581e-05
-8.15332e-05
-4.62641e-05
-7.79849e-05
-5.30592e-05
-7.35181e-05
-5.95397e-05
-6.80457e-05
-6.54362e-05
-6.15077e-05
-7.04091e-05
-5.39021e-05
-7.41073e-05
-4.5351e-05
-7.62912e-05
-3.61309e-05
-7.68976e-05
-2.66122e-05
-7.60028e-05
-1.71592e-05
-7.37861e-05
-8.06924e-06
-7.03903e-05
3.25163e-07
-6.6186e-05
8.06686e-06
-6.13933e-05
1.48373e-05
-5.62498e-05
2.06756e-05
-5.09608e-05
2.55783e-05
-4.5694e-05
2.95922e-05
3.28448e-05
-4.05806e-05
-5.79507e-06
-8.20347e-05
-1.16726e-05
-8.27483e-05
-1.76087e-05
-8.17844e-05
-2.3609e-05
-8.02991e-05
-2.96633e-05
-7.82139e-05
-3.57294e-05
-7.54673e-05
-4.17269e-05
-7.19876e-05
-4.75333e-05
-6.77117e-05
-5.29844e-05
-6.25945e-05
-5.78736e-05
-5.66186e-05
-6.19609e-05
-4.98147e-05
-6.50163e-05
-4.22956e-05
-6.68807e-05
-3.42665e-05
-6.75014e-05
-2.59914e-05
-6.69217e-05
-1.77389e-05
-6.5242e-05
-9.74895e-06
-6.26825e-05
-2.23432e-06
-5.93264e-05
4.71064e-06
-5.54421e-05
1.0953e-05
-5.12078e-05
1.64412e-05
-4.67882e-05
2.11586e-05
-4.23275e-05
2.51313e-05
2.84579e-05
-3.79407e-05
-5.30929e-06
-7.67256e-05
-1.06741e-05
-7.73834e-05
-1.60615e-05
-7.63971e-05
-2.14631e-05
-7.48978e-05
-2.68566e-05
-7.28204e-05
-3.21963e-05
-7.01277e-05
-3.74076e-05
-6.67764e-05
-4.23871e-05
-6.27323e-05
-4.7004e-05
-5.79776e-05
-5.11029e-05
-5.25196e-05
-5.45136e-05
-4.6404e-05
-5.70783e-05
-3.97308e-05
-5.86878e-05
-3.26569e-05
-5.93021e-05
-2.53769e-05
-5.8946e-05
-1.8095e-05
-5.76942e-05
-1.10008e-05
-5.56824e-05
-4.24613e-06
-5.30172e-05
2.0453e-06
-4.98692e-05
7.80494e-06
-4.63814e-05
1.29535e-05
-4.26907e-05
1.74678e-05
-3.89192e-05
2.13597e-05
2.47055e-05
-3.51669e-05
-4.81156e-06
-7.19142e-05
-9.66365e-06
-7.25312e-05
-1.45115e-05
-7.15497e-05
-1.93407e-05
-7.00687e-05
-2.41218e-05
-6.80393e-05
-2.88093e-05
-6.54406e-05
-3.33366e-05
-6.22493e-05
-3.76179e-05
-5.8451e-05
-4.15496e-05
-5.40459e-05
-4.50139e-05
-4.90552e-05
-4.78885e-05
-4.35292e-05
-5.00637e-05
-3.75554e-05
-5.14628e-05
-3.12576e-05
-5.20549e-05
-2.47847e-05
-5.18564e-05
-1.82935e-05
-5.09242e-05
-1.1933e-05
-4.93433e-05
-5.82703e-06
-4.72155e-05
-8.24864e-08
-4.46564e-05
5.2458e-06
-4.17818e-05
1.00788e-05
-3.87026e-05
1.43885e-05
-3.552e-05
1.81771e-05
2.15056e-05
-3.232e-05
-4.31359e-06
-6.76005e-05
-8.66247e-06
-6.81824e-05
-1.2989e-05
-6.72236e-05
-1.72765e-05
-6.57812e-05
-2.14924e-05
-6.38236e-05
-2.55931e-05
-6.13401e-05
-2.95208e-05
-5.83216e-05
-3.32047e-05
-5.47669e-05
-3.6563e-05
-5.06875e-05
-3.95064e-05
-4.61117e-05
-4.19455e-05
-4.109e-05
-4.38024e-05
-3.56983e-05
-4.50229e-05
-3.00369e-05
-4.55847e-05
-2.42228e-05
-4.54984e-05
-1.83796e-05
-4.48042e-05
-1.26271e-05
-4.35616e-05
-7.06958e-06
-4.18613e-05
-1.78286e-06
-3.97756e-05
3.16016e-06
-3.74068e-05
7.70997e-06
-3.4842e-05
1.18237e-05
-3.21635e-05
1.54985e-05
1.8786e-05
-2.94439e-05
-3.8265e-06
-6.37739e-05
-7.68641e-06
-6.43228e-05
-1.1514e-05
-6.3396e-05
-1.52913e-05
-6.20039e-05
-1.89852e-05
-6.013e-05
-2.25554e-05
-5.777e-05
-2.59524e-05
-5.49245e-05
-2.91182e-05
-5.16011e-05
-3.1988e-05
-4.78177e-05
-3.44937e-05
-4.36059e-05
-3.65696e-05
-3.90141e-05
-3.81594e-05
-3.41083e-05
-3.92244e-05
-2.89717e-05
-3.97484e-05
-2.36987e-05
-3.97388e-05
-1.83891e-05
-3.92252e-05
-1.31407e-05
-3.82547e-05
-8.04004e-06
-3.68852e-05
-3.15225e-06
-3.51913e-05
1.46619e-06
-3.32441e-05
5.76269e-06
-3.11147e-05
9.69421e-06
-2.88696e-05
1.32533e-05
1.64852e-05
-2.65687e-05
-3.35788e-06
-6.04161e-05
-6.74645e-06
-6.09345e-05
-1.00991e-05
-6.00433e-05
-1.33964e-05
-5.87068e-05
-1.66068e-05
-5.69198e-05
-1.96939e-05
-5.46828e-05
-2.26159e-05
-5.20025e-05
-2.53254e-05
-4.88917e-05
-2.77711e-05
-4.5372e-05
-2.9901e-05
-4.14761e-05
-3.1666e-05
-3.7249e-05
-3.30253e-05
-3.27489e-05
-3.39508e-05
-2.80459e-05
-3.44311e-05
-2.32182e-05
-3.44722e-05
-1.83478e-05
-3.40971e-05
-1.35156e-05
-3.33416e-05
-8.79545e-06
-3.22482e-05
-4.24573e-06
-3.08714e-05
8.93419e-08
-2.92768e-05
4.16798e-06
-2.75181e-05
7.93535e-06
-2.56478e-05
1.1383e-05
1.45512e-05
-2.37139e-05
-2.91085e-06
-5.75054e-05
-5.84785e-06
-5.79975e-05
-8.74911e-06
-5.71421e-05
-1.15944e-05
-5.58618e-05
-1.43547e-05
-5.41596e-05
-1.69985e-05
-5.2039e-05
-1.94905e-05
-4.95106e-05
-2.17921e-05
-4.65902e-05
-2.3863e-05
-4.33012e-05
-2.56631e-05
-3.96759e-05
-2.71559e-05
-3.57561e-05
-2.83113e-05
-3.15934e-05
-2.91091e-05
-2.7248e-05
-2.95414e-05
-2.27858e-05
-2.96133e-05
-1.82758e-05
-2.93427e-05
-1.37861e-05
-2.87571e-05
-9.38104e-06
-2.78885e-05
-5.11444e-06
-2.6784e-05
-1.01526e-06
-2.54847e-05
2.86856e-06
-2.40437e-05
6.49422e-06
-2.25004e-05
9.83975e-06
1.29413e-05
-2.08906e-05
-2.48477e-06
-5.50207e-05
-4.98994e-06
-5.54923e-05
-7.46165e-06
-5.46706e-05
-9.87981e-06
-5.34438e-05
-1.22192e-05
-5.18201e-05
-1.44526e-05
-4.98055e-05
-1.65508e-05
-4.74124e-05
-1.84827e-05
-4.46584e-05
-2.02167e-05
-4.15673e-05
-2.1722e-05
-3.81705e-05
-2.29713e-05
-3.45067e-05
-2.39425e-05
-3.06222e-05
-2.46209e-05
-2.65694e-05
-2.50014e-05
-2.24052e-05
-2.50885e-05
-1.81885e-05
-2.48963e-05
-1.39782e-05
-2.44469e-05
-9.83045e-06
-2.37676e-05
-5.79392e-06
-2.2884e-05
-1.89894e-06
-2.18427e-05
1.82713e-06
-2.06787e-05
5.33018e-06
-1.94241e-05
8.58513e-06
1.16212e-05
-1.81039e-05
-2.07654e-06
-5.29442e-05
-4.16887e-06
-5.34001e-05
-6.23114e-06
-5.26085e-05
-8.24449e-06
-5.14304e-05
-1.01875e-05
-4.9877e-05
-1.20375e-05