/*--------------------------------*- C++ -*----------------------------------*\
| =========                 |                                                 |
| \\      /  F ield         | OpenFOAM: The Open Source CFD Toolbox           |
|  \\    /   O peration     | Version:  5.x                                   |
|   \\  /    A nd           | Web:      www.OpenFOAM.org                      |
|    \\/     M anipulation  |                                                 |
\*---------------------------------------------------------------------------*/
FoamFile
{
    version     2.0;
    format      ascii;
    class       volVectorField;
    location    "0.15";
    object      U;
}
// * * * * * * * * * * * * * * * * * * * * * * * * * * * * * * * * * * * * * //

dimensions      [0 1 -1 0 0 0 0];

internalField   nonuniform List<vector> 
2268
(
(0.0212772 -0.0115631 0)
(0.0849767 -0.0183831 0)
(0.164412 -0.0182364 0)
(0.24097 -0.0172725 0)
(0.313598 -0.0170811 0)
(0.386216 -0.0174793 0)
(0.461446 -0.0181585 0)
(0.539933 -0.0189409 0)
(0.621809 -0.0197495 0)
(0.707097 -0.0205434 0)
(0.79556 -0.0212606 0)
(0.886692 -0.0217956 0)
(0.979456 -0.0219414 0)
(1.07166 -0.0213572 0)
(1.15937 -0.0196213 0)
(1.23657 -0.0162602 0)
(1.29419 -0.0101486 0)
(1.32068 0.00305922 0)
(1.27993 0.0292434 0)
(1.11343 0.0761636 0)
(0.759568 0.124524 0)
(0.233418 0.120647 0)
(-0.177039 -0.0798292 0)
(0.0213566 -0.0348048 0)
(0.08532 -0.0551033 0)
(0.164829 -0.0547463 0)
(0.241271 -0.0519326 0)
(0.313884 -0.0513567 0)
(0.386604 -0.0525499 0)
(0.461967 -0.0545906 0)
(0.540578 -0.0569441 0)
(0.622594 -0.0593905 0)
(0.708096 -0.0617892 0)
(0.796843 -0.0639391 0)
(0.888315 -0.0655685 0)
(0.981617 -0.066132 0)
(1.07488 -0.0646402 0)
(1.1645 -0.05979 0)
(1.24487 -0.0499446 0)
(1.3081 -0.0321534 0)
(1.34218 0.000943413 0)
(1.34734 0.0590284 0)
(1.32089 0.158655 0)
(1.19765 0.284393 0)
(0.791758 0.347635 0)
(0.29362 0.112537 0)
(0.0214298 -0.058237 0)
(0.0854466 -0.0916748 0)
(0.164594 -0.0911393 0)
(0.240421 -0.0865463 0)
(0.312627 -0.0855858 0)
(0.385151 -0.0875794 0)
(0.460385 -0.0909912 0)
(0.538879 -0.0949252 0)
(0.620828 -0.0990313 0)
(0.706371 -0.103068 0)
(0.795316 -0.106702 0)
(0.887236 -0.109529 0)
(0.981441 -0.110712 0)
(1.07636 -0.108655 0)
(1.16887 -0.101195 0)
(1.25399 -0.0855829 0)
(1.32451 -0.0576004 0)
(1.36939 -0.0100404 0)
(1.37239 0.0686955 0)
(1.31418 0.197827 0)
(1.2086 0.385909 0)
(0.954564 0.554087 0)
(0.496127 0.384409 0)
(0.0215881 -0.081808 0)
(0.0856461 -0.127997 0)
(0.164227 -0.127234 0)
(0.23922 -0.120945 0)
(0.310883 -0.119667 0)
(0.383146 -0.122508 0)
(0.458219 -0.12732 0)
(0.536588 -0.13286 0)
(0.618496 -0.13867 0)
(0.704157 -0.14442 0)
(0.793467 -0.149662 0)
(0.886175 -0.153896 0)
(0.981843 -0.156031 0)
(1.07921 -0.153942 0)
(1.1758 -0.144766 0)
(1.26771 -0.124814 0)
(1.3487 -0.088268 0)
(1.4073 -0.0254795 0)
(1.42959 0.0798694 0)
(1.38137 0.245368 0)
(1.24153 0.478896 0)
(0.965303 0.74645 0)
(0.574969 0.700962 0)
(0.0218431 -0.1055 0)
(0.0859191 -0.163964 0)
(0.163708 -0.162853 0)
(0.237669 -0.154971 0)
(0.308677 -0.153498 0)
(0.380624 -0.157265 0)
(0.455513 -0.163522 0)
(0.533753 -0.170709 0)
(0.615646 -0.178291 0)
(0.701494 -0.185862 0)
(0.791308 -0.1929 0)
(0.885081 -0.198839 0)
(0.982645 -0.20235 0)
(1.08303 -0.200906 0)
(1.18464 -0.191215 0)
(1.28519 -0.168732 0)
(1.37937 -0.125738 0)
(1.45611 -0.0497593 0)
(1.50241 0.0797224 0)
(1.4848 0.288738 0)
(1.36236 0.58686 0)
(1.0117 0.942578 0)
(0.6329 1.05017 0)
(0.0222632 -0.129476 0)
(0.0863028 -0.199587 0)
(0.163017 -0.197955 0)
(0.235758 -0.188599 0)
(0.30602 -0.187086 0)
(0.3776 -0.191873 0)
(0.45226 -0.199619 0)
(0.530326 -0.208495 0)
(0.612169 -0.217923 0)
(0.698177 -0.227439 0)
(0.788507 -0.236499 0)
(0.883456 -0.244497 0)
(0.983099 -0.249843 0)
(1.08675 -0.249806 0)
(1.19392 -0.24104 0)
(1.30418 -0.218141 0)
(1.41342 -0.171159 0)
(1.51133 -0.0854132 0)
(1.58888 0.0632496 0)
(1.61839 0.308971 0)
(1.54996 0.693174 0)
(1.15494 1.15162 0)
(0.701745 1.42824 0)
(0.0229005 -0.153857 0)
(0.0867519 -0.234875 0)
(0.162053 -0.232576 0)
(0.233402 -0.221901 0)
(0.30282 -0.220512 0)
(0.373937 -0.226409 0)
(0.448256 -0.235682 0)
(0.526023 -0.246284 0)
(0.60769 -0.257629 0)
(0.693733 -0.269213 0)
(0.784487 -0.28053 0)
(0.880553 -0.290944 0)
(0.982231 -0.298588 0)
(1.0893 -0.300765 0)
(1.20249 -0.294517 0)
(1.32301 -0.273526 0)
(1.44859 -0.22495 0)
(1.57065 -0.133075 0)
(1.6857 0.0232651 0)
(1.77958 0.290344 0)
(1.77886 0.76527 0)
(1.35803 1.3623 0)
(0.780658 1.85291 0)
(0.023669 -0.178524 0)
(0.0870938 -0.269756 0)
(0.160684 -0.266605 0)
(0.23053 -0.254795 0)
(0.298988 -0.253722 0)
(0.369487 -0.260819 0)
(0.443301 -0.271657 0)
(0.520595 -0.284027 0)
(0.601919 -0.297367 0)
(0.687844 -0.311155 0)
(0.778898 -0.324971 0)
(0.875929 -0.338142 0)
(0.979451 -0.348584 0)
(1.08999 -0.353892 0)
(1.20952 -0.351735 0)
(1.34029 -0.334843 0)
(1.48249 -0.288358 0)
(1.63107 -0.200386 0)
(1.78139 -0.0602056 0)
(1.93024 0.192769 0)
(1.96966 0.742102 0)
(1.42513 1.57326 0)
(0.789681 2.33399 0)
(-0.0799155 0.0273567 0)
(-0.176933 0.0156109 0)
(-0.218901 0.00802131 0)
(-0.237376 0.00127474 0)
(-0.229442 -0.00287626 0)
(-0.208939 -0.00513259 0)
(-0.181614 -0.00599787 0)
(-0.152527 -0.00608447 0)
(-0.124638 -0.00567609 0)
(-0.0995887 -0.00502754 0)
(-0.0780392 -0.00428963 0)
(-0.0601061 -0.00356053 0)
(-0.0454473 -0.00289555 0)
(-0.0337615 -0.00241382 0)
(-0.0245323 -0.00190469 0)
(-0.0172014 -0.00160043 0)
(-0.0113412 -0.00133532 0)
(-0.00643565 -0.00114387 0)
(-0.0021272 -0.00104243 0)
(-0.0994129 0.0860459 0)
(-0.196075 0.0448201 0)
(-0.227536 0.0210282 0)
(-0.239718 0.00166468 0)
(-0.22822 -0.0101807 0)
(-0.204802 -0.0167752 0)
(-0.174673 -0.0191837 0)
(-0.143341 -0.0189655 0)
(-0.114141 -0.0173482 0)
(-0.0886306 -0.0150325 0)
(-0.0672428 -0.0125672 0)
(-0.049938 -0.0102128 0)
(-0.0362774 -0.0081114 0)
(-0.0257596 -0.0064744 0)
(-0.0178484 -0.00497456 0)
(-0.0119575 -0.00394637 0)
(-0.00754109 -0.00313268 0)
(-0.00415811 -0.00260462 0)
(-0.00141832 -0.00246155 0)
(-0.108217 0.151365 0)
(-0.212943 0.0735766 0)
(-0.23946 0.0324187 0)
(-0.248816 0.000499334 0)
(-0.233438 -0.0185676 0)
(-0.207433 -0.0292194 0)
(-0.175767 -0.0329794 0)
(-0.143763 -0.0322174 0)
(-0.114281 -0.0292246 0)
(-0.088659 -0.0250774 0)
(-0.0672775 -0.0207885 0)
(-0.0500059 -0.0167589 0)
(-0.0364035 -0.0131939 0)
(-0.0259038 -0.0103067 0)
(-0.0179887 -0.00785978 0)
(-0.0120916 -0.0060564 0)
(-0.0076433 -0.00469601 0)
(-0.00422335 -0.00385203 0)
(-0.00143949 -0.0035879 0)
(-0.128437 0.226888 0)
(-0.248669 0.102749 0)
(-0.260218 0.0417835 0)
(-0.262501 -0.00305134 0)
(-0.241042 -0.0287485 0)
(-0.211088 -0.0428194 0)
(-0.176591 -0.0472828 0)
(-0.142969 -0.0458527 0)
(-0.112723 -0.0411776 0)
(-0.0868361 -0.0351412 0)
(-0.0655236 -0.0289894 0)
(-0.0484436 -0.0232935 0)
(-0.0351105 -0.0182401 0)
(-0.0248622 -0.0141011 0)
(-0.017177 -0.0107708 0)
(-0.0114988 -0.00819066 0)
(-0.00723336 -0.006287 0)
(-0.00399152 -0.0051176 0)
(-0.00136268 -0.00475313 0)
(-0.164134 0.313401 0)
(-0.302437 0.130175 0)
(-0.288868 0.0450096 0)
(-0.281047 -0.0106706 0)
(-0.250734 -0.0414969 0)
(-0.215484 -0.0582192 0)
(-0.177328 -0.0627676 0)
(-0.141519 -0.0601052 0)
(-0.11015 -0.0532913 0)
(-0.0839453 -0.0452922 0)
(-0.0627296 -0.0371297 0)
(-0.0459144 -0.0296642 0)
(-0.0329384 -0.0232132 0)
(-0.0231189 -0.0177604 0)
(-0.0158008 -0.0135643 0)
(-0.0104384 -0.0101789 0)
(-0.00651364 -0.00780687 0)
(-0.00357831 -0.00629124 0)
(-0.00122155 -0.0058211 0)
(-0.208954 0.438037 0)
(-0.365588 0.153993 0)
(-0.325389 0.0423918 0)
(-0.305785 -0.0233396 0)
(-0.262825 -0.057533 0)
(-0.220391 -0.0755925 0)
(-0.177648 -0.079638 0)
(-0.139236 -0.0748778 0)
(-0.106694 -0.0657978 0)
(-0.0802076 -0.0554848 0)
(-0.0590953 -0.0451605 0)
(-0.0427129 -0.0358436 0)
(-0.0302046 -0.027937 0)
(-0.0208849 -0.0213264 0)
(-0.0140495 -0.0161025 0)
(-0.0091184 -0.0120382 0)
(-0.00562108 -0.00918804 0)
(-0.00304423 -0.00731004 0)
(-0.00104594 -0.00675523 0)
(-0.290509 0.546644 0)
(-0.454181 0.158777 0)
(-0.371229 0.0361933 0)
(-0.33921 -0.0422009 0)
(-0.278697 -0.078585 0)
(-0.226085 -0.0958108 0)
(-0.177461 -0.0979299 0)
(-0.136029 -0.0905194 0)
(-0.102247 -0.078551 0)
(-0.0754554 -0.06554 0)
(-0.0546139 -0.0530183 0)
(-0.0387882 -0.0418986 0)
(-0.0269275 -0.0323795 0)
(-0.0182128 -0.0246234 0)
(-0.0119455 -0.0184528 0)
(-0.00756333 -0.0137143 0)
(-0.00454142 -0.0103465 0)
(-0.00241178 -0.00817559 0)
(-0.000841238 -0.00752502 0)
(-0.30391 0.801344 0)
(-0.609202 0.196542 0)
(-0.425695 0.0137429 0)
(-0.377975 -0.0678556 0)
(-0.297472 -0.106855 0)
(-0.232306 -0.120601 0)
(-0.176716 -0.118813 0)
(-0.131819 -0.107484 0)
(-0.0966458 -0.0918119 0)
(-0.0697482 -0.075726 0)
(-0.0493281 -0.0608044 0)
(-0.0341562 -0.0477192 0)
(-0.0230337 -0.0365846 0)
(-0.0150982 -0.0276703 0)
(-0.00951057 -0.0205868 0)
(-0.0057408 -0.015132 0)
(-0.00330714 -0.0112977 0)
(-0.00168686 -0.00885252 0)
(-0.000598419 -0.00809631 0)
(0.0247014 -0.21764 0)
(0.0870697 -0.323064 0)
(0.157684 -0.317814 0)
(0.225012 -0.304731 0)
(0.291729 -0.30471 0)
(0.360916 -0.31389 0)
(0.433559 -0.327238 0)
(0.509726 -0.342469 0)
(0.590122 -0.359129 0)
(0.67548 -0.376731 0)
(0.766597 -0.395044 0)
(0.864521 -0.413313 0)
(0.970159 -0.429535 0)
(1.08551 -0.442201 0)
(1.21363 -0.44898 0)
(1.35582 -0.442235 0)
(1.51257 -0.413687 0)
(1.68606 -0.36387 0)
(1.85744 -0.276182 0)
(1.96281 0.0677567 0)
(1.87829 1.08157 0)
(1.45086 2.02407 0)
(0.945335 2.94327 0)
(0.0257527 -0.271293 0)
(0.0864148 -0.393193 0)
(0.152703 -0.384371 0)
(0.216205 -0.370282 0)
(0.280256 -0.372334 0)
(0.347286 -0.384585 0)
(0.417875 -0.401414 0)
(0.492027 -0.420654 0)
(0.570673 -0.442098 0)
(0.65477 -0.465367 0)
(0.745403 -0.490524 0)
(0.843647 -0.516716 0)
(0.951166 -0.542699 0)
(1.0719 -0.568051 0)
(1.20813 -0.588959 0)
(1.35497 -0.601773 0)
(1.50515 -0.614025 0)
(1.66266 -0.594223 0)
(1.81822 -0.409892 0)
(1.87969 0.176054 0)
(1.62907 1.43327 0)
(1.49496 2.35877 0)
(1.08019 3.28593 0)
(0.0266072 -0.325386 0)
(0.0848688 -0.45873 0)
(0.14615 -0.445942 0)
(0.205413 -0.432067 0)
(0.266368 -0.436919 0)
(0.330578 -0.452418 0)
(0.398297 -0.47275 0)
(0.46951 -0.496112 0)
(0.54538 -0.522657 0)
(0.627108 -0.552119 0)
(0.715705 -0.58483 0)
(0.812002 -0.620146 0)
(0.919638 -0.657936 0)
(1.04291 -0.696757 0)
(1.17493 -0.734036 0)
(1.30177 -0.778682 0)
(1.44187 -0.812188 0)
(1.6024 -0.73716 0)
(1.68734 -0.405924 0)
(1.56723 0.654468 0)
(1.31992 1.99695 0)
(1.28872 2.58537 0)
(1.13811 3.29458 0)
(0.0270825 -0.379355 0)
(0.0822192 -0.519536 0)
(0.138022 -0.502772 0)
(0.192803 -0.490258 0)
(0.250207 -0.498345 0)
(0.310865 -0.517046 0)
(0.374861 -0.54079 0)
(0.442154 -0.568288 0)
(0.514182 -0.6001 0)
(0.592367 -0.635947 0)
(0.67696 -0.676475 0)
(0.769315 -0.721825 0)
(0.87649 -0.771284 0)
(0.995134 -0.821133 0)
(1.10191 -0.880653 0)
(1.21005 -0.954061 0)
(1.35359 -0.95672 0)
(1.44001 -0.718671 0)
(1.29087 -0.0944077 0)
(0.837293 0.859097 0)
(0.745118 2.07528 0)
(0.955409 2.7737 0)
(1.06013 3.0629 0)
(0.0271142 -0.432479 0)
(0.0784284 -0.574865 0)
(0.128384 -0.554491 0)
(0.17849 -0.544381 0)
(0.231838 -0.55586 0)
(0.28817 -0.577529 0)
(0.347573 -0.604469 0)
(0.409908 -0.635981 0)
(0.477031 -0.673033 0)
(0.550369 -0.715101 0)
(0.628654 -0.763701 0)
(0.716799 -0.819633 0)
(0.82234 -0.878016 0)
(0.921694 -0.938698 0)
(0.996868 -1.02581 0)
(1.11473 -1.08968 0)
(1.23193 -0.969174 0)
(1.07407 -0.458642 0)
(0.506897 0.319507 0)
(0.107177 0.896591 0)
(0.13879 1.64157 0)
(0.567301 2.56166 0)
(0.852484 2.86827 0)
(0.0266705 -0.483959 0)
(0.0735233 -0.62414 0)
(0.117365 -0.600927 0)
(0.162637 -0.594051 0)
(0.211383 -0.608784 0)
(0.262623 -0.633036 0)
(0.31659 -0.662857 0)
(0.372927 -0.698144 0)
(0.43421 -0.740209 0)
(0.501103 -0.788103 0)
(0.571069 -0.845441 0)
(0.656626 -0.911083 0)
(0.752782 -0.975233 0)
(0.818349 -1.0528 0)
(0.897139 -1.1573 0)
(1.03735 -1.16369 0)
(1.00634 -0.730749 0)
(0.407451 0.119249 0)
(-0.10643 0.710307 0)
(-0.287165 0.983613 0)
(-0.277719 1.36983 0)
(0.107312 2.07388 0)
(0.533923 2.51193 0)
(0.0257824 -0.53292 0)
(0.0676214 -0.666918 0)
(0.10516 -0.641953 0)
(0.14546 -0.638846 0)
(0.189058 -0.656445 0)
(0.234522 -0.682802 0)
(0.282299 -0.715108 0)
(0.331708 -0.753831 0)
(0.386405 -0.800439 0)
(0.444708 -0.853798 0)
(0.505547 -0.920281 0)
(0.587852 -0.991884 0)
(0.657334 -1.06322 0)
(0.699121 -1.16305 0)
(0.799975 -1.25674 0)
(0.884675 -1.05371 0)
(0.58084 -0.236832 0)
(-0.175168 0.603834 0)
(-0.334117 0.907002 0)
(-0.4087 1.02658 0)
(-0.415697 1.24365 0)
(-0.175848 1.61672 0)
(0.234523 1.96448 0)
(0.0244755 -0.578771 0)
(0.0609099 -0.703185 0)
(0.0920883 -0.677748 0)
(0.127326 -0.678575 0)
(0.165316 -0.698429 0)
(0.204505 -0.726305 0)
(0.245496 -0.760557 0)
(0.287276 -0.802133 0)
(0.334492 -0.852359 0)
(0.381226 -0.910693 0)
(0.432787 -0.983835 0)
(0.501817 -1.05662 0)
(0.530141 -1.14664 0)
(0.591942 -1.26726 0)
(0.710953 -1.3058 0)
(0.646658 -0.759899 0)
(-0.05456 0.341736 0)
(-0.35114 0.853773 0)
(-0.347326 0.955075 0)
(-0.368043 1.03234 0)
(-0.352876 1.16886 0)
(-0.225374 1.34437 0)
(0.0530341 1.52701 0)
(0.0228095 -0.620764 0)
(0.0537286 -0.73277 0)
(0.0786741 -0.708212 0)
(0.108905 -0.712763 0)
(0.141021 -0.734127 0)
(0.173644 -0.762873 0)
(0.207319 -0.798394 0)
(0.240643 -0.841835 0)
(0.27822 -0.894021 0)
(0.309289 -0.955488 0)
(0.348909 -1.02821 0)
(0.386095 -1.10495 0)
(0.388117 -1.2307 0)
(0.47863 -1.35063 0)
(0.544929 -1.18244 0)
(0.28652 -0.244696 0)
(-0.336284 0.66113 0)
(-0.278389 0.895769 0)
(-0.271736 0.938651 0)
(-0.260979 1.02007 0)
(-0.231371 1.11996 0)
(-0.161974 1.20967 0)
(-0.0171605 1.31019 0)
(0.020989 -0.65786 0)
(0.0465216 -0.755431 0)
(0.0653374 -0.733078 0)
(0.0907267 -0.740955 0)
(0.116688 -0.763128 0)
(0.142174 -0.792112 0)
(0.167398 -0.828001 0)
(0.190198 -0.871605 0)
(0.214009 -0.92272 0)
(0.226065 -0.982606 0)
(0.249822 -1.04855 0)
(0.255707 -1.14662 0)
(0.293588 -1.31534 0)
(0.389403 -1.39226 0)
(0.342197 -0.96601 0)
(-0.0586684 0.139503 0)
(-0.268404 0.780724 0)
(-0.150605 0.847101 0)
(-0.168685 0.922919 0)
(-0.152293 1.00114 0)
(-0.127266 1.08147 0)
(-0.0803025 1.13997 0)
(-0.00113555 1.20076 0)
(0.0191463 -0.690998 0)
(0.0391502 -0.772272 0)
(0.0514022 -0.75343 0)
(0.071748 -0.763982 0)
(0.0906219 -0.785758 0)
(0.107504 -0.81352 0)
(0.122323 -0.847493 0)
(0.132262 -0.887748 0)
(0.141184 -0.933485 0)
(0.142291 -0.988138 0)
(0.165046 -1.05454 0)
(0.200525 -1.19704 0)
(0.320619 -1.37836 0)
(0.371496 -1.32207 0)
(0.273472 -0.636702 0)
(-0.0494291 0.360619 0)
(-0.00799621 0.786107 0)
(-0.0337858 0.822411 0)
(-0.062422 0.928832 0)
(-0.0699693 0.989143 0)
(-0.0558365 1.04894 0)
(-0.0172218 1.089 0)
(0.0436138 1.12326 0)
(0.017043 -0.721119 0)
(0.0303673 -0.783458 0)
(0.0351952 -0.769351 0)
(0.0498098 -0.781163 0)
(0.0607613 -0.800219 0)
(0.0689704 -0.824171 0)
(0.0753508 -0.85318 0)
(0.0794314 -0.888402 0)
(0.0919358 -0.93402 0)
(0.12557 -0.999466 0)
(0.220295 -1.10928 0)
(0.385579 -1.30471 0)
(0.518876 -1.42798 0)
(0.409408 -1.24998 0)
(0.4457 -0.644569 0)
(0.321553 0.437806 0)
(0.266753 0.836555 0)
(0.0874354 0.885923 0)
(0.0212442 0.958948 0)
(-0.0178595 0.995072 0)
(-0.0148692 1.02615 0)
(0.0161177 1.04344 0)
(0.0715564 1.05342 0)
(0.0147446 -0.744388 0)
(0.0197641 -0.786583 0)
(0.0186661 -0.778585 0)
(0.0287068 -0.790586 0)
(0.0362034 -0.806931 0)
(0.0461198 -0.828959 0)
(0.0643972 -0.859782 0)
(0.0988797 -0.905933 0)
(0.170224 -0.98244 0)
(0.322876 -1.11777 0)
(0.654804 -1.3555 0)
(0.841317 -1.49881 0)
(0.716042 -1.34968 0)
(0.393767 -1.18583 0)
(0.349596 -0.855045 0)
(0.5435 0.512436 0)
(0.477529 1.06833 0)
(0.168211 1.03848 0)
(0.0551604 1.02205 0)
(0.0006284 1.01932 0)
(-0.0058336 1.014 0)
(0.0182552 1.0039 0)
(0.0676827 0.990002 0)
(0.01447 -0.759556 0)
(0.0121862 -0.780432 0)
(0.0152001 -0.782985 0)
(0.0291318 -0.798166 0)
(0.0518986 -0.820488 0)
(0.0986884 -0.858219 0)
(0.198521 -0.932846 0)
(0.333985 -1.01637 0)
(0.499515 -1.17129 0)
(0.653754 -1.43058 0)
(0.809166 -1.54755 0)
(0.832863 -1.47283 0)
(0.812087 -1.00623 0)
(0.439696 -0.957039 0)
(0.281537 -0.826092 0)
(0.345434 0.110486 0)
(0.446752 1.26819 0)
(0.124069 1.2334 0)
(0.015931 1.11003 0)
(-0.0259437 1.05048 0)
(-0.0307814 1.00641 0)
(-0.00663655 0.969876 0)
(0.0386902 0.93528 0)
(0.0182661 -0.773519 0)
(0.020516 -0.780414 0)
(0.0504565 -0.79898 0)
(0.0811361 -0.826829 0)
(0.127828 -0.874437 0)
(0.187887 -0.954729 0)
(0.255929 -1.04619 0)
(0.346091 -1.16163 0)
(0.453378 -1.32529 0)
(0.574126 -1.52368 0)
(0.72067 -1.62127 0)
(0.745423 -1.46412 0)
(0.812064 -0.925549 0)
(0.636124 -0.585204 0)
(0.238389 -0.672447 0)
(0.200268 0.174036 0)
(0.155327 1.45144 0)
(-0.0726862 1.37582 0)
(-0.0870677 1.17729 0)
(-0.10242 1.06768 0)
(-0.0869686 0.99266 0)
(-0.0531693 0.935172 0)
(-0.00647533 0.88552 0)
(0.0104338 -0.791929 0)
(0.0212561 -0.808955 0)
(0.047721 -0.833293 0)
(0.0704074 -0.866835 0)
(0.0998724 -0.92373 0)
(0.133088 -1.0013 0)
(0.168163 -1.10377 0)
(0.212726 -1.23517 0)
(0.271396 -1.42525 0)
(0.360915 -1.65138 0)
(0.464536 -1.7418 0)
(0.463204 -1.50944 0)
(0.463762 -0.926489 0)
(0.548494 -0.443036 0)
(0.0604025 -0.42922 0)
(-0.0343542 0.3544 0)
(-0.299448 1.58329 0)
(-0.327163 1.41765 0)
(-0.238386 1.18445 0)
(-0.21129 1.05137 0)
(-0.163635 0.961226 0)
(-0.114058 0.892157 0)
(-0.0609135 0.834789 0)
(0.0032003 -0.8054 0)
(0.0105117 -0.825934 0)
(0.0191929 -0.849595 0)
(0.0272922 -0.885839 0)
(0.0349628 -0.942116 0)
(0.03994 -1.01878 0)
(0.0410948 -1.12138 0)
(0.0403191 -1.26321 0)
(0.0501578 -1.47958 0)
(0.0643673 -1.72224 0)
(0.0520623 -1.77724 0)
(-0.0316781 -1.45984 0)
(-0.103148 -0.897242 0)
(-0.00396552 -0.398993 0)
(-0.377363 -0.104341 0)
(-0.571926 0.764309 0)
(-0.756116 1.58216 0)
(-0.568404 1.32498 0)
(-0.403908 1.11597 0)
(-0.32779 0.992765 0)
(-0.246186 0.90519 0)
(-0.179796 0.836153 0)
(-0.117833 0.778995 0)
(-0.00258899 -0.806074 0)
(-0.00684241 -0.82625 0)
(-0.0128071 -0.848814 0)
(-0.0206172 -0.88369 0)
(-0.0330262 -0.934992 0)
(-0.0529921 -1.00493 0)
(-0.0839612 -1.09811 0)
(-0.128092 -1.23464 0)
(-0.184735 -1.44288 0)
(-0.291219 -1.65734 0)
(-0.454544 -1.66818 0)
(-0.616647 -1.31052 0)
(-0.651414 -0.789252 0)
(-0.732915 -0.300238 0)
(-0.989371 0.230802 0)
(-1.1513 0.997539 0)
(-1.03186 1.36741 0)
(-0.734448 1.11375 0)
(-0.539209 0.983253 0)
(-0.425207 0.895673 0)
(-0.319905 0.825355 0)
(-0.240513 0.766933 0)
(-0.170781 0.7168 0)
(-0.00717464 -0.794459 0)
(-0.02256 -0.814767 0)
(-0.0400918 -0.833828 0)
(-0.0618368 -0.864363 0)
(-0.0906128 -0.907523 0)
(-0.130084 -0.964853 0)
(-0.186601 -1.03931 0)
(-0.265817 -1.14613 0)
(-0.387019 -1.30377 0)
(-0.60068 -1.46057 0)
(-0.883623 -1.45623 0)
(-1.11285 -1.14834 0)
(-1.20956 -0.60401 0)
(-1.33985 -0.0398109 0)
(-1.50176 0.439553 0)
(-1.39854 0.892 0)
(-1.09558 1.00564 0)
(-0.805273 0.862225 0)
(-0.616488 0.820684 0)
(-0.487401 0.77537 0)
(-0.374321 0.729919 0)
(-0.288649 0.688428 0)
(-0.214839 0.649594 0)
(-0.0111402 -0.77482 0)
(-0.0355685 -0.792995 0)
(-0.0625654 -0.808353 0)
(-0.0946883 -0.832485 0)
(-0.135006 -0.865532 0)
(-0.187613 -0.907635 0)
(-0.258675 -0.958545 0)
(-0.355327 -1.02224 0)
(-0.501369 -1.10808 0)
(-0.741314 -1.19258 0)
(-1.06031 -1.17783 0)
(-1.36357 -0.966029 0)
(-1.55586 -0.552713 0)
(-1.60119 -0.0522963 0)
(-1.52743 0.360538 0)
(-1.31757 0.597111 0)
(-1.01955 0.655783 0)
(-0.801313 0.646821 0)
(-0.638609 0.66196 0)
(-0.514479 0.651222 0)
(-0.406215 0.630398 0)
(-0.321044 0.606755 0)
(-0.24755 0.580485 0)
(-0.0145573 -0.747858 0)
(-0.0457393 -0.763377 0)
(-0.0796679 -0.774719 0)
(-0.118893 -0.791905 0)
(-0.166084 -0.814454 0)
(-0.22497 -0.841513 0)
(-0.300569 -0.87069 0)
(-0.397039 -0.898267 0)
(-0.527109 -0.924264 0)
(-0.720222 -0.939377 0)
(-0.97644 -0.891775 0)
(-1.22749 -0.71951 0)
(-1.38501 -0.430136 0)
(-1.40294 -0.105129 0)
(-1.29357 0.16133 0)
(-1.10192 0.329191 0)
(-0.904994 0.420744 0)
(-0.756682 0.486794 0)
(-0.624377 0.524514 0)
(-0.515315 0.537481 0)
(-0.418393 0.536093 0)
(-0.338505 0.527545 0)
(-0.268784 0.512849 0)
(-0.0169245 -0.714736 0)
(-0.0527034 -0.727768 0)
(-0.0910835 -0.735203 0)
(-0.134289 -0.745974 0)
(-0.18451 -0.759106 0)
(-0.244621 -0.773196 0)
(-0.318213 -0.785516 0)
(-0.40702 -0.790869 0)
(-0.513876 -0.783751 0)
(-0.650071 -0.757253 0)
(-0.81876 -0.692848 0)
(-0.984945 -0.564901 0)
(-1.08934 -0.372475 0)
(-1.09809 -0.157314 0)
(-1.02451 0.0302346 0)
(-0.910832 0.175154 0)
(-0.799575 0.286535 0)
(-0.695274 0.367314 0)
(-0.591032 0.41251 0)
(-0.499485 0.439872 0)
(-0.415904 0.451747 0)
(-0.343796 0.454407 0)
(-0.279876 0.44928 0)
(-0.0183013 -0.678023 0)
(-0.0567842 -0.688949 0)
(-0.0975138 -0.692858 0)
(-0.142267 -0.698172 0)
(-0.192775 -0.703594 0)
(-0.250984 -0.707537 0)
(-0.319037 -0.707439 0)
(-0.397721 -0.699309 0)
(-0.486673 -0.677998 0)
(-0.586446 -0.636365 0)
(-0.694448 -0.56433 0)
(-0.794813 -0.453857 0)
(-0.859859 -0.309948 0)
(-0.872353 -0.155711 0)
(-0.840584 -0.0160293 0)
(-0.782272 0.101701 0)
(-0.71017 0.201806 0)
(-0.630594 0.275664 0)
(-0.549391 0.323983 0)
(-0.474121 0.358519 0)
(-0.403417 0.378605 0)
(-0.339984 0.38899 0)
(-0.282742 0.391292 0)
(-0.0189727 -0.6395 0)
(-0.0585091 -0.648629 0)
(-0.0999055 -0.649608 0)
(-0.144464 -0.650523 0)
(-0.193438 -0.65003 0)
(-0.248081 -0.646637 0)
(-0.309388 -0.63807 0)
(-0.377462 -0.621287 0)
(-0.451805 -0.592737 0)
(-0.531012 -0.54736 0)
(-0.60951 -0.478979 0)
(-0.676006 -0.385634 0)
(-0.718185 -0.274141 0)
(-0.730185 -0.157627 0)
(-0.715313 -0.0469969 0)
(-0.680104 0.0536865 0)
(-0.629302 0.139247 0)
(-0.568446 0.205436 0)
(-0.505361 0.254539 0)
(-0.443889 0.291535 0)
(-0.384625 0.316226 0)
(-0.329751 0.331691 0)
(-0.279321 0.339506 0)
(-0.0190455 -0.600361 0)
(-0.0583027 -0.607977 0)
(-0.0990385 -0.606726 0)
(-0.142159 -0.604309 0)
(-0.188462 -0.599538 0)
(-0.238736 -0.591115 0)
(-0.29333 -0.577199 0)
(-0.351855 -0.555436 0)
(-0.413413 -0.523448 0)
(-0.476398 -0.478712 0)
(-0.536353 -0.418197 0)
(-0.585276 -0.340756 0)
(-0.61584 -0.250785 0)
(-0.625977 -0.156762 0)
(-0.617702 -0.0656387 0)
(-0.593432 0.0184739 0)
(-0.556335 0.0917534 0)
(-0.510784 0.151802 0)
(-0.461641 0.199464 0)
(-0.411574 0.236562 0)
(-0.362183 0.263521 0)
(-0.315215 0.28217 0)
(-0.271295 0.293923 0)
(-0.0185767 -0.562106 0)
(-0.0566485 -0.568433 0)
(-0.095796 -0.56558 0)
(-0.136667 -0.560764 0)
(-0.179689 -0.553048 0)
(-0.225289 -0.541344 0)
(-0.273454 -0.524267 0)
(-0.323588 -0.500225 0)
(-0.374571 -0.467615 0)
(-0.424735 -0.424681 0)
(-0.471076 -0.369894 0)
(-0.508822 -0.303675 0)
(-0.533264 -0.229641 0)
(-0.542459 -0.153003 0)
(-0.53743 -0.0778015 0)
(-0.520215 -0.00700293 0)
(-0.492849 0.0562664 0)
(-0.458215 0.110427 0)
(-0.419564 0.155289 0)
(-0.378863 0.191403 0)
(-0.337842 0.219191 0)
(-0.297936 0.239708 0)
(-0.259992 0.254176 0)
(-0.0176924 -0.525196 0)
(-0.0539476 -0.530492 0)
(-0.0909051 -0.526545 0)
(-0.129029 -0.520128 0)
(-0.168513 -0.510532 0)
(-0.209514 -0.496912 0)
(-0.251827 -0.47826 0)
(-0.294832 -0.453475 0)
(-0.337549 -0.421567 0)
(-0.378472 -0.381698 0)
(-0.415175 -0.33329 0)
(-0.444552 -0.276782 0)
(-0.463989 -0.214436 0)
(-0.47235 -0.149776 0)
(-0.469912 -0.0860758 0)
(-0.457702 -0.0257014 0)
(-0.437184 0.0295289 0)
(-0.410504 0.0781799 0)
(-0.379836 0.119757 0)
(-0.346755 0.154296 0)
(-0.312738 0.182004 0)
(-0.27901 0.203481 0)
(-0.246415 0.21973 0)
(-0.0165623 -0.490288 0)
(-0.0505775 -0.49483 0)
(-0.0849869 -0.490174 0)
(-0.120099 -0.482786 0)
(-0.155992 -0.47211 0)
(-0.192628 -0.457534 0)
(-0.22973 -0.438355 0)
(-0.266691 -0.41387 0)
(-0.302619 -0.383469 0)
(-0.336294 -0.346686 0)
(-0.366023 -0.30341 0)
(-0.389755 -0.254346 0)
(-0.405729 -0.201197 0)
(-0.413128 -0.146225 0)
(-0.412124 -0.0916144 0)
(-0.403421 -0.039205 0)
(-0.387948 0.00942009 0)
(-0.367221 0.05299 0)
(-0.342781 0.0912223 0)
(-0.315839 0.123854 0)
(-0.287633 0.150904 0)
(-0.259214 0.1727 0)
(-0.231326 0.190026 0)
(-0.0153247 -0.457706 0)
(-0.0468186 -0.461735 0)
(-0.078488 -0.456653 0)
(-0.110501 -0.448755 0)
(-0.142875 -0.437578 0)
(-0.175456 -0.422711 0)
(-0.207941 -0.403683 0)
(-0.239785 -0.380057 0)
(-0.270237 -0.351504 0)
(-0.298311 -0.317858 0)
(-0.322759 -0.279234 0)
(-0.342221 -0.236249 0)
(-0.355569 -0.190144 0)
(-0.362205 -0.142565 0)
(-0.362131 -0.0951584 0)
(-0.355848 -0.0493194 0)
(-0.344219 -0.00623191 0)
(-0.32807 0.0330579 0)
(-0.308413 0.0681988 0)
(-0.286407 0.0988564 0)
(-0.263006 0.124939 0)
(-0.2391 0.146626 0)
(-0.215309 0.164516 0)
(-0.0140581 -0.427723 0)
(-0.042865 -0.431409 0)
(-0.0717146 -0.426118 0)
(-0.100662 -0.41803 0)
(-0.129664 -0.406754 0)
(-0.158527 -0.392035 0)
(-0.186938 -0.373574 0)
(-0.214426 -0.351125 0)
(-0.240364 -0.324532 0)
(-0.263982 -0.29379 0)
(-0.284373 -0.259128 0)
(-0.300602 -0.221118 0)
(-0.311907 -0.180699 0)
(-0.317866 -0.139053 0)
(-0.318445 -0.0974255 0)
(-0.313965 -0.0569553 0)
(-0.305024 -0.0185503 0)
(-0.292287 0.0171478 0)
(-0.276514 0.049515 0)
(-0.258529 0.078271 0)
(-0.23912 0.10326 0)
(-0.21904 0.124574 0)
(-0.198794 0.142675 0)
(-0.0127884 -0.400449 0)
(-0.0388419 -0.403886 0)
(-0.064871 -0.398553 0)
(-0.0908575 -0.390487 0)
(-0.116676 -0.379378 0)
(-0.142145 -0.365078 0)
(-0.166956 -0.347417 0)
(-0.190708 -0.326273 0)
(-0.212889 -0.301611 0)
(-0.232899 -0.273521 0)
(-0.250072 -0.24227 0)
(-0.263754 -0.208359 0)
(-0.273417 -0.172524 0)
(-0.278763 -0.135661 0)
(-0.279749 -0.0987124 0)
(-0.276587 -0.0625744 0)
(-0.269712 -0.0279889 0)
(-0.259634 0.00448777 0)
(-0.24692 0.0343434 0)
(-0.232201 0.0613048 0)
(-0.216108 0.0851629 0)
(-0.19927 0.10595 0)
(-0.182087 0.124027 0)
(-0.011521 -0.375894 0)
(-0.0348388 -0.379122 0)
(-0.0581043 -0.373867 0)
(-0.0812626 -0.365959 0)
(-0.104105 -0.355183 0)
(-0.126478 -0.34146 0)
(-0.148093 -0.324708 0)
(-0.168609 -0.304894 0)
(-0.187614 -0.282055 0)
(-0.204641 -0.256333 0)
(-0.219197 -0.228003 0)
(-0.230815 -0.197502 0)
(-0.239123 -0.165419 0)
(-0.243909 -0.132452 0)
(-0.245141 -0.0993375 0)
(-0.242959 -0.0667895 0)
(-0.237663 -0.0354208 0)
(-0.229673 -0.0056881 0)
(-0.21941 0.0219948 0)
(-0.207352 0.047322 0)
(-0.194021 0.0700768 0)
(-0.179934 0.0902547 0)
(-0.165401 0.108154 0)
(-0.0102633 -0.353986 0)
(-0.0309246 -0.357021 0)
(-0.0515226 -0.351917 0)
(-0.0719915 -0.344254 0)
(-0.0920597 -0.333906 0)
(-0.111602 -0.320836 0)
(-0.130357 -0.305026 0)
(-0.148039 -0.286498 0)
(-0.164316 -0.265334 0)
(-0.178825 -0.241702 0)
(-0.191199 -0.215869 0)
(-0.201098 -0.188214 0)
(-0.208257 -0.159221 0)
(-0.212524 -0.129451 0)
(-0.213876 -0.099491 0)
(-0.212415 -0.0699187 0)
(-0.208352 -0.0412422 0)
(-0.202003 -0.0138552 0)
(-0.193716 0.011935 0)
(-0.183858 0.03581 0)
(-0.172848 0.0575293 0)
(-0.161109 0.0770709 0)
(-0.148872 0.0946939 0)
(-0.0090298 -0.334623 0)
(-0.0271496 -0.33748 0)
(-0.0451975 -0.332564 0)
(-0.0631118 -0.325193 0)
(-0.0805918 -0.315314 0)
(-0.0975332 -0.302917 0)
(-0.113706 -0.288026 0)
(-0.128873 -0.270699 0)
(-0.142767 -0.251044 0)
(-0.155107 -0.229238 0)
(-0.165615 -0.205532 0)
(-0.174042 -0.180258 0)
(-0.180198 -0.153822 0)
(-0.183973 -0.126683 0)
(-0.185353 -0.099321 0)
(-0.184417 -0.0722091 0)
(-0.181325 -0.0457763 0)
(-0.176315 -0.0203661 0)
(-0.169641 0.00377446 0)
(-0.161592 0.0263601 0)
(-0.152543 0.0471351 0)
(-0.142815 0.0660513 0)
(-0.132581 0.0833402 0)
(-0.00783472 -0.31773 0)
(-0.0235389 -0.320431 0)
(-0.0391603 -0.31571 0)
(-0.0546476 -0.308645 0)
(-0.0697056 -0.299234 0)
(-0.0842421 -0.287487 0)
(-0.0980616 -0.273454 0)
(-0.110968 -0.257214 0)
(-0.122746 -0.238891 0)
(-0.133178 -0.218659 0)
(-0.142055 -0.196753 0)
(-0.149192 -0.173467 0)
(-0.15445 -0.149146 0)
(-0.157753 -0.124173 0)
(-0.159093 -0.0989504 0)
(-0.158532 -0.0738731 0)
(-0.156194 -0.0493128 0)
(-0.152257 -0.0255727 0)
(-0.146935 -0.0028488 0)
(-0.140425 0.018632 0)
(-0.133032 0.0385796 0)
(-0.12504 0.0569109 0)
(-0.116565 0.0738387 0)
(-0.00668455 -0.303215 0)
(-0.0200906 -0.305791 0)
(-0.0334035 -0.301262 0)
(-0.0465814 -0.294496 0)
(-0.0593626 -0.285528 0)
(-0.0716605 -0.274382 0)
(-0.0833137 -0.261123 0)
(-0.0941603 -0.245842 0)
(-0.104031 -0.228667 0)
(-0.112755 -0.209772 0)
(-0.120176 -0.189372 0)
(-0.126157 -0.16773 0)
(-0.130596 -0.145145 0)
(-0.13344 -0.121945 0)
(-0.134685 -0.0984706 0)
(-0.134384 -0.0750584 0)
(-0.132638 -0.0520323 0)
(-0.129581 -0.0296694 0)
(-0.12537 -0.00815188 0)
(-0.120169 0.0123753 0)
(-0.114215 0.0316126 0)
(-0.107744 0.0494189 0)
(-0.100831 0.0659827 0)
(-0.00557525 -0.290848 0)
(-0.0167847 -0.293336 0)
(-0.0279022 -0.288988 0)
(-0.0388789 -0.28251 0)
(-0.0495094 -0.273954 0)
(-0.0597076 -0.263357 0)
(-0.0693444 -0.250788 0)
(-0.0782896 -0.236345 0)
(-0.0864107 -0.220156 0)
(-0.0935783 -0.202388 0)
(-0.0996738 -0.18324 0)
(-0.104597 -0.162949 0)
(-0.108274 -0.14178 0)
(-0.110668 -0.120018 0)
(-0.111779 -0.0979583 0)
(-0.11165 -0.0758944 0)
(-0.110361 -0.0541094 0)
(-0.108023 -0.0328562 0)
(-0.104761 -0.0123213 0)
(-0.100707 0.00737717 0)
(-0.0960019 0.0260335 0)
(-0.0908725 0.0433905 0)
(-0.0853649 0.0596082 0)
(-0.00448479 -0.280508 0)
(-0.0135805 -0.282923 0)
(-0.0226247 -0.278733 0)
(-0.0315055 -0.27251 0)
(-0.0400999 -0.264318 0)
(-0.0483198 -0.254199 0)
(-0.0560661 -0.242224 0)
(-0.0632367 -0.228493 0)
(-0.0697304 -0.213132 0)
(-0.075451 -0.1963 0)
(-0.0803117 -0.178183 0)
(-0.0842411 -0.158995 0)
(-0.0871889 -0.138974 0)
(-0.0891304 -0.118371 0)
(-0.0900704 -0.0974459 0)
(-0.090044 -0.0764592 0)
(-0.0891154 -0.0556622 0)
(-0.0873746 -0.0352895 0)
(-0.0849255 -0.0155319 0)
(-0.0818564 0.00350441 0)
(-0.0782634 0.0216911 0)
(-0.0743577 0.0386844 0)
(-0.0701379 0.0545898 0)
(-0.00337092 -0.272627 0)
(-0.0103928 -0.274905 0)
(-0.0174761 -0.270832 0)
(-0.0243504 -0.264811 0)
(-0.0310035 -0.256903 0)
(-0.0373494 -0.247152 0)
(-0.0433169 -0.235634 0)
(-0.0488283 -0.222448 0)
(-0.0538075 -0.20772 0)
(-0.0581828 -0.1916 0)
(-0.0618911 -0.174267 0)
(-0.0648823 -0.155916 0)
(-0.0671234 -0.136766 0)
(-0.068602 -0.117045 0)
(-0.0693279 -0.0969872 0)
(-0.0693332 -0.076825 0)
(-0.0686715 -0.0567831 0)
(-0.0674159 -0.0370751 0)
(-0.0656566 -0.0178887 0)
(-0.063474 0.000663904 0)
(-0.0609139 0.0184832 0)
(-0.0581341 0.035201 0)
(-0.0551189 0.0508396 0)
(-0.00221713 -0.267352 0)
(-0.00714475 -0.269255 0)
(-0.012303 -0.265299 0)
(-0.0172045 -0.259455 0)
(-0.0219506 -0.251771 0)
(-0.0264711 -0.242302 0)
(-0.0307229 -0.231123 0)