/*--------------------------------*- C++ -*----------------------------------*\
| =========                 |                                                 |
| \\      /  F ield         | OpenFOAM: The Open Source CFD Toolbox           |
|  \\    /   O peration     | Version:  5.x                                   |
|   \\  /    A nd           | Web:      www.OpenFOAM.org                      |
|    \\/     M anipulation  |                                                 |
\*---------------------------------------------------------------------------*/
FoamFile
{
    version     2.0;
    format      ascii;
    class       volScalarField;
    location    "0.8";
    object      alpha.water;
}
// * * * * * * * * * * * * * * * * * * * * * * * * * * * * * * * * * * * * * //

dimensions      [0 0 0 0 0 0 0];

internalField   nonuniform List<scalar> 
2268
(
1
1
1
1
1
1
1
1
1
1
1
1
1
1
1
1
0.962165
0.880399
1
0.999986
0.999718
0.999353
0.999516
1
1
1
1
1
1
1
1
1
1
1
1
1
1
0.999998
0.998564
0.936807
0.904627
0.991142
0.992024
0.972488
0.9846
1
1
1
1
1
1
1
1
1
1
1
1
1
1
1
1
0.999739
0.989293
0.967008
0.957956
0.95792
0.958053
0.980501
1
0.999999
1
1
1
1
1
1
1
1
1
1
1
1
1
1
0.999999
1
0.999999
0.996885
0.989475
0.972974
1
0.999963
1
1
1
1
1
1
1
1
1
1
1
1
1
1
1
1
1
1
1
1
1
1
1
1
1
1
1
1
1
1
1
1
1
1
1
1
1
1
1
1
1
1
1
1
1
1
1
1
1
1
1
1
1
1
1
1
1
1
1
1
1
1
1
1
1
1
1
1
1
1
1
1
1
1
0.989588
0.974533
1
1
1
1
1
1
1
1
0.999999
0.999999
0.999999
0.999999
0.999999
0.999999
0.999998
1
0.952065
1
1
1
0.99872
0.994416
0.996978
0.766336
0.946661
0.952911
0.791608
0.772078
0.803026
0.80941
0.908213
1
1
0.992321
0.922124
0.91462
1
0.999907
0.999942
0.999969
0.999969
0.997593
0.872894
0.936074
0.789571
0.616713
0.618178
0.646986
0.662069
0.663567
0.881226
0.992772
0.578434
0.234586
0.911065
0.999996
0.999103
0.999257
0.999776
0.999969
0.999617
0.997594
0.814809
0.394099
0.340379
0.780907
0.786689
0.786601
0.665794
0.719573
0.981693
0.727662
0.216027
0.960885
0.981812
0.88865
0.848502
0.994914
0.999961
0.999791
0.982302
0.513787
0.0947589
0.124108
0.778813
0.783615
0.786601
0.778554
0.847892
0.968824
0.884541
0.858352
1
0.944225
0.703054
0.702799
0.983897
0.999791
0.998592
0.825909
0.0725631
0.0857432
0.265037
0.772257
0.636088
0.577109
0.626653
0.763089
0.930235
0.626369
0.836023
1
0.989836
0.71151
0.720045
0.978449
0.998592
0.992048
0.619108
0.0659084
0.0718842
0.588608
0.704688
0.0605794
0.0186663
0.065251
0.217146
0.613871
0.553769
0.816601
1
0.999946
0.721454
0.912693
0.979643
0.995003
0.868653
0.111063
0.0659084
0.0812751
0.579552
0.196877
0.00605327
0.00600458
0.00600458
0.00600458
0.0965768
0.553791
0.848595
1
0.938719
0.743644
0.925498
0.978775
0.984472
0.755729
0.0650708
0.0659084
0.292683
0.544465
0.0101573
0.00629442
0.00605327
0.00598822
0.00608164
0.0627121
0.554436
0.372769
0.691965
0.743705
0.733802
0.739071
0.758484
0.838188
0.940708
0.994566
1
1
1
0.999999
0.999992
0.99998
0.99997
0.999967
0.999968
0.99997
0.999966
0.999957
0.999957
0.999954
0.999978
0.220851
0.108255
0.136408
0.193593
0.289214
0.398472
0.484648
0.555866
0.669444
0.795041
0.873266
0.895028
0.897856
0.896332
0.890204
0.876558
0.865093
0.859645
0.85896
0.860954
0.86683
0.880581
0.904418
-4.44637e-06
0.000301701
0.000306749
0.000471209
0.00839279
0.0295879
0.0496899
0.0887365
0.199245
0.383137
0.510025
0.526934
0.427845
0.273441
0.184755
0.151245
0.135888
0.120939
0.105787
0.0994317
0.117976
0.155863
0.171568
-1.48486e-06
5.73201e-05
4.21637e-05
0.00011165
0.000365727
0.000176572
0.00058481
0.0647689
0.287561
0.344643
0.183724
0.029079
0.029079
0.0321239
0.0182101
0.00959707
0.00395971
0.00116403
0.000719918
0.000632164
0.000629679
0.000629679
0.000629679
-4.5827e-07
1.46529e-05
8.16212e-06
6.94795e-06
7.65623e-06
3.56004e-05
0.000407428
0.000777142
0.00149623
0.00520226
0.0179744
0.154514
0.251689
0.261912
0.227867
0.142028
0.0809514
0.0300965
0.00109842
0.000652355
0.000630225
0.000629679
0.000630225
-1.70755e-07
6.63233e-06
1.82585e-06
8.86687e-07
7.78432e-07
2.17293e-06
1.57763e-05
6.22806e-05
0.000477629
0.000950238
0.00446869
0.127002
0.257528
0.273345
0.277476
0.279898
0.28735
0.270041
0.0341819
0.00199719
0.000635595
0.000630225
0.000635395
-4.40953e-08
2.30395e-06
4.39193e-07
1.4242e-07
8.25159e-08
1.52978e-07
9.12805e-07
6.33093e-06
0.000217761
0.00134342
0.00138905
1.82616e-05
0.000125376
0.0425754
0.209122
0.284056
0.292669
0.29844
0.304212
0.14141
0.000812526
0.000635595
0.000641602
-3.15531e-09
6.06482e-07
1.5475e-07
3.25802e-08
1.28619e-08
1.52203e-08
8.65303e-08
9.37129e-07
1.39757e-05
9.81886e-05
9.42193e-05
1.36486e-06
4.43274e-06
4.07415e-05
0.000279869
0.00383859
0.207907
0.304212
0.311553
0.323821
0.146005
0.000812604
0.000662247
4.73064e-22
2.93043e-06
3.47419e-08
1.28632e-08
5.26915e-09
4.38428e-09
8.98715e-09
7.39885e-08
5.07736e-07
1.51103e-06
6.08338e-07
1.15345e-06
2.24122e-07
1.29023e-06
1.45204e-05
0.000110825
0.00069129
0.0492489
0.300215
0.332395
0.346361
0.283896
0.0277286
0
3.19387e-06
8.68506e-07
5.26964e-09
4.38731e-09
3.58267e-09
2.39101e-09
7.72706e-09
5.88105e-08
1.91616e-07
9.94024e-08
3.57476e-07
7.10983e-08
6.36688e-08
2.06772e-07
4.49011e-06
2.85282e-05
0.000200339
0.00111639
0.18495
0.358979
0.36128
0.36128
1.31394e-08
3.19147e-06
3.08602e-06
8.57709e-07
4.10477e-09
2.39101e-09
1.87813e-09
1.28791e-09
1.00288e-08
2.54766e-08
2.21538e-08
6.01643e-08
4.52178e-08
1.64079e-08
2.35358e-08
3.51512e-08
4.28675e-07
1.16133e-05
6.59978e-05
0.000299375
0.0218825
0.279002
0.36128
-7.48671e-24
2.78024e-06
2.90962e-06
1.88058e-06
3.35601e-08
1.87813e-09
1.40599e-09
6.41034e-10
1.20654e-08
4.67067e-09
2.28338e-09
3.16445e-08
3.16871e-08
8.30989e-09
4.75667e-09
1.46365e-08
5.64216e-08
1.70048e-07
-1.61519e-06
1.04578e-05
3.36597e-06
4.85133e-05
0.0766879
-1.87168e-24
6.26812e-07
1.68877e-06
9.89042e-07
9.02114e-08
1.22647e-09
6.36498e-10
5.24681e-10
4.73392e-09
6.00091e-10
6.38938e-10
3.59069e-08
3.67109e-08
7.7204e-09
1.11365e-09
1.8863e-09
4.86926e-09
4.74625e-08
2.43847e-07
3.08318e-06
1.23671e-05
2.09082e-05
2.51168e-05
3.00831e-10
2.0821e-09
6.46984e-08
3.21601e-08
5.1273e-08
7.20156e-09
4.7411e-10
4.80941e-10
3.52063e-10
1.31807e-10
3.7915e-10
3.02307e-08
3.10795e-08
5.75536e-09
5.6812e-10
4.0733e-10
6.0347e-10
4.86926e-09
0.000201554
0.000494926
5.7145e-05
2.51168e-05
0.000169744
5.16296e-10
5.89175e-10
5.0894e-09
2.57299e-09
2.11835e-09
2.19991e-09
4.3457e-10
3.80363e-10
2.16794e-10
7.6868e-11
9.63532e-10
9.66175e-09
8.26175e-09
2.49896e-09
4.76921e-10
2.67143e-10
1.42066e-10
3.23031e-07
0.000131647
0.000517759
0.000288086
4.33388e-05
0.000141082
2.16891e-10
2.48893e-10
8.91766e-10
5.14709e-10
1.83696e-10
2.92376e-10
1.68498e-10
1.98447e-10
1.36199e-10
7.1612e-11
1.06912e-09
4.67806e-10
3.32549e-10
6.06236e-10
3.67807e-10
2.74862e-10
8.78493e-11
2.78694e-09
4.91737e-06
0.000441404
0.00150938
0.000391149
8.02511e-05
5.84059e-11
8.1268e-11
1.78006e-10
1.33581e-10
8.73195e-11
5.39346e-11
6.3971e-11
7.47986e-11
6.34649e-11
5.56797e-11
5.20536e-10
2.04872e-10
1.57393e-10
2.34297e-10
2.28252e-10
2.21661e-10
6.26365e-11
-9.45262e-11
6.3092e-09
7.02252e-06
0.00171669
0.00193264
0.000103556
1.68117e-11
5.49608e-11
5.40319e-11
4.59501e-11
2.40045e-11
1.34931e-11
2.57718e-11
2.6092e-11
2.6283e-11
3.43269e-11
1.06377e-10
9.18781e-11
9.03978e-11
1.13088e-10
1.24123e-10
1.43774e-10
5.43248e-11
4.256e-11
7.76266e-10
8.86226e-08
0.000750712
0.00193264
0.0018728
4.09831e-12
1.79372e-11
1.33862e-11
9.42763e-12
3.83064e-12
3.17033e-12
8.20553e-12
8.27114e-12
1.00247e-11
1.95502e-11
2.64412e-11
3.41636e-11
3.93605e-11
4.62817e-11
5.44091e-11
7.09215e-11
5.24934e-11
2.05424e-11
6.02404e-11
8.31697e-09
2.77171e-07
0.00137431
0.00243548
8.13251e-13
2.32759e-12
2.00289e-12
1.23789e-12
5.32225e-13
6.2371e-13
1.76269e-12
2.05316e-12
3.3195e-12
9.88906e-12
1.03174e-11
1.14026e-11
1.29798e-11
1.43372e-11
1.77145e-11
2.55002e-11
4.0181e-11
1.13606e-11
-3.02321e-11
1.02102e-09
2.97869e-08
3.23916e-05
0.000424044
1.40394e-13
2.91481e-13
2.46449e-13
1.55685e-13
7.32417e-14
1.02623e-13
2.77213e-13
3.85801e-13
8.63196e-13
3.62049e-12
3.7511e-12
3.51206e-12
3.52231e-12
3.55999e-12
4.35322e-12
8.29274e-12
2.07976e-11
9.70696e-12
9.75287e-12
6.69854e-11
-1.92409e-09
2.81129e-07
4.96627e-07
2.23614e-14
3.7387e-14
2.98864e-14
1.89046e-14
9.70886e-15
1.50424e-14
3.91615e-14
6.0715e-14
1.65746e-13
8.22651e-13
1.03187e-12
9.39274e-13
8.53049e-13
7.7451e-13
8.97535e-13
3.03242e-12
9.58095e-12
7.67534e-12
7.73744e-12
1.42555e-11
1.32404e-10
1.02751e-08
1.62864e-08
3.33882e-15
4.60275e-15
3.46848e-15
2.18674e-15
1.22316e-15
2.07047e-15
5.42646e-15
8.94414e-15
2.48709e-14
1.20355e-13
2.00467e-13
2.01714e-13
1.87497e-13
1.56696e-13
1.66896e-13
1.04217e-12
4.48332e-12
4.45911e-12
2.92437e-11
3.41117e-11
4.22404e-11
5.18938e-10
4.23741e-10
4.67671e-16
5.37482e-16
3.81932e-16
2.40273e-16
1.46035e-16
2.7064e-16
7.21276e-16
1.2839e-15
3.42486e-15
1.4435e-14
2.8906e-14
3.57002e-14
3.49766e-14
2.91442e-14
2.81745e-14
2.23402e-13
1.67276e-12
1.82516e-12
4.35831e-11
5.75249e-11
2.69706e-11
2.89321e-11
1.96127e-11
6.15985e-17
5.97591e-17
3.99348e-17
2.51138e-17
1.6545e-17
3.33374e-17
9.00319e-17
1.79292e-16
4.835e-16
1.77014e-15
3.69321e-15
5.31583e-15
5.48783e-15
4.82244e-15
4.15999e-15
2.13649e-14
3.30762e-13
4.80486e-13
2.56199e-11
3.51431e-11
1.77174e-11
2.48904e-12
1.38898e-12
7.65939e-18
6.34612e-18
3.96959e-18
2.50039e-18
1.78123e-18
3.86205e-18
1.05569e-17
2.40254e-17
6.93578e-17
2.29012e-16
4.67842e-16
7.0447e-16
7.5537e-16
6.90692e-16
5.52764e-16
1.05218e-15
2.42445e-14
6.93623e-14
3.68225e-12
5.90715e-12
3.53823e-12
7.70598e-13
8.85524e-13
9.0219e-19
6.44565e-19
3.75787e-19
2.37437e-19
1.82453e-19
4.22234e-19
1.17025e-18
3.02644e-18
9.52921e-18
2.9491e-17
5.87505e-17
8.81493e-17
9.4758e-17
8.79109e-17
6.74904e-17
6.83158e-17
6.58332e-16
5.29035e-15
7.64172e-14
2.38407e-13
2.2626e-13
1.56639e-13
2.13113e-13
1.00869e-19
6.27146e-20
3.3872e-20
2.15311e-20
1.78085e-20
4.37386e-20
1.23137e-19
3.52561e-19
1.19598e-18
3.58485e-18
7.03635e-18
1.05191e-17
1.10481e-17
1.02478e-17
7.60902e-18
6.61207e-18
1.77219e-17
2.11535e-16
5.54417e-16
6.03312e-15
1.13775e-14
1.78082e-14
2.602e-14
1.06654e-20
5.82501e-21
2.90953e-21
1.86443e-21
1.65816e-21
4.30673e-21
1.23233e-20
3.79848e-20
1.35445e-19
4.01083e-19
7.80896e-19
1.17234e-18
1.19437e-18
1.10196e-18
7.75824e-19
6.42862e-19
1.08132e-18
5.91426e-18
1.47422e-17
1.98689e-16
5.01679e-16
9.10148e-16
1.43587e-15
1.03234e-21
5.08881e-22
2.32717e-22
1.52826e-22
1.46841e-22
4.04154e-22
1.17538e-21
3.83358e-21
1.40714e-20
4.13372e-20
7.98047e-20
1.19675e-19
1.19456e-19
1.08536e-19
6.90066e-20
5.12783e-20
7.86582e-20
2.66223e-19
6.99188e-19
7.57812e-18
1.94615e-17
3.48964e-17
8.73386e-17
7.30336e-23
3.78456e-23
1.45718e-23
1.10146e-23
1.20265e-23
3.62213e-23
1.07176e-22
3.66955e-22
1.37078e-21
3.97821e-21
7.58182e-21
1.12088e-20
1.10698e-20
9.67681e-21
4.16356e-21
2.11398e-21
3.82707e-21
1.5387e-20
4.9561e-20
3.17952e-19
8.35592e-19
2.78114e-18
1.80198e-17
1.40362e-24
7.92927e-25
3.03297e-25
3.05469e-25
8.04869e-25
3.1179e-24
9.37905e-24
3.35311e-23
1.26788e-22
3.61938e-22
6.7793e-22
9.77927e-22
9.54491e-22
7.23931e-22
9.22131e-23
1.67689e-23
1.31999e-25
7.7422e-22
3.33623e-21
1.36902e-20
5.66465e-20
5.39529e-19
6.19331e-18
-7.61134e-24
-3.27268e-42
-1.12681e-24
0
1.3215e-26
2.54073e-25
7.87694e-25
2.93629e-24
1.11915e-23
3.13489e-23
5.75306e-23
8.0392e-23
7.72767e-23
4.71197e-23
-7.00066e-22
-6.26813e-22
-1.02433e-23
-6.64953e-39
1.72512e-22
6.63182e-22
6.65461e-21
1.29573e-19
1.87505e-18
-1.14021e-23
-1.65991e-24
-1.4163e-24
-3.53983e-25
0
1.15223e-26
6.37458e-26
2.47952e-25
9.46393e-25
2.59647e-24
4.65746e-24
6.26949e-24
5.918e-24
3.35201e-24
-6.37087e-22
-6.04293e-22
-2.13373e-22
-1.82989e-23
1.66238e-39
3.34521e-23
8.99927e-22
2.40272e-20
3.80413e-19
-7.66197e-24
-1.10714e-24
-7.60797e-25
-2.35185e-25
-2.37372e-26
2.08081e-43
5.09408e-27
2.02158e-26
7.70313e-26
2.0657e-25
3.61297e-25
4.66219e-25
4.31012e-25
2.32513e-25
-3.28631e-22
-3.20725e-22
-1.40334e-22
-3.24254e-23
-1.02682e-24
1.35459e-24
9.53477e-23
2.99718e-21
4.81699e-20
-3.954e-24
-5.32158e-25
-3.20102e-25
-1.08611e-25
-1.5763e-26
-2.08816e-28
2.03932e-28
1.59884e-27
6.08127e-27
1.58668e-26
2.69836e-26
3.32205e-26
2.99933e-26
1.53031e-26
-1.29824e-22
-1.26797e-22
-5.89719e-23
-1.64125e-23
-2.58185e-24
-2.91964e-27
7.21301e-24
2.86718e-22
4.4828e-21
-1.74769e-24
-2.18938e-25
-1.17734e-25
-4.23894e-26
-7.20419e-27
-4.81849e-28
4.89085e-47
1.28684e-28
4.68316e-28
1.18293e-27
1.95006e-27
2.27946e-27
2.00308e-27
9.63163e-28
-4.28908e-23
-4.1062e-23
-1.9186e-23
-5.60928e-24
-1.07352e-24
-1.11401e-25
4.79168e-25
2.76447e-23
4.35219e-22
-6.90777e-25
-8.13824e-26
-3.94511e-26
-1.4818e-26
-2.74488e-27
-2.58976e-28
4.99372e-47
8.89047e-30
3.52371e-29
8.61217e-29
1.37085e-28
1.51383e-28
1.28947e-28
5.83346e-29
-1.23682e-23
-1.14131e-23
-5.18817e-24
-1.50217e-24
-2.96899e-25
-3.78403e-26
3.93859e-26
3.22006e-24
5.03464e-23
-2.49621e-25
-2.79895e-26
-1.2297e-26
-4.76234e-27
-9.25292e-28
-1.01703e-28
-3.89463e-30
2.23109e-31
2.65056e-30
6.16557e-30
9.42277e-30
9.7812e-30
8.03816e-30
3.41517e-30
-3.19704e-24
-2.80205e-24
-1.21103e-24
-3.35052e-25
-6.40856e-26
-8.29854e-27
4.55064e-27
4.21838e-25
5.74272e-24
-8.35849e-26
-9.01036e-27
-3.61002e-27
-1.42825e-27
-2.83755e-28
-3.35507e-29
-1.90913e-30
6.19286e-48
1.97943e-31
4.36203e-31
6.37619e-31
6.20968e-31
4.87389e-31
1.94057e-31
-7.55129e-25
-6.20035e-25
-2.49985e-25
-6.43655e-26
-1.14558e-26
-1.39458e-27
6.32064e-28
5.05993e-26
5.1503e-25
-2.61817e-26
-2.7424e-27
-1.0073e-27
-4.0402e-28
-8.06491e-29
-9.82099e-30
-6.47604e-31
-3.14555e-34
1.40187e-32
2.92467e-32
3.67856e-32
3.47748e-32
2.79603e-32
1.08853e-32
-1.65124e-25
-1.25615e-25
-4.65543e-26
-1.09404e-26
-1.76427e-27
-1.92956e-28
7.91271e-29
4.68632e-27
3.27003e-26
-7.72356e-27
-7.84449e-28
-2.67926e-28
-1.08338e-28
-2.12852e-29
-2.56349e-30
-1.73674e-31
-2.0493e-33
4.72148e-34
1.97532e-33
4.74149e-33
3.89549e-33
1.37115e-33
3.02582e-34
-3.40783e-26
-2.34916e-26
-7.79216e-27
-1.61749e-27
-2.2649e-28
-2.07892e-29
4.42132e-30
1.89188e-28
8.44126e-28
1
1
1
1
0.875378
0.855268
0.867
0.912538
0.0983506
0.0773841
0.0888726
0.163745
0.000635008
0.000709539
0.00108464
0.00269472
0.000635395
0.000676481
0.000837062
0.00135063
0.000641602
0.000667224
0.000741639
0.000936116
0.000662226
0.000839077
0.00144955
0.0018061
0.000773049
0.00271565
0.0255078
0.0530092
0.0121681
0.0161725
0.236326
0.568939
0.347734
0.304719
0.408311
0.51098
0.360137
0.316348
0.312129
0.368863
0.0891226
0.000629034
0.0274909
0.0963741
4.02507e-05
6.18463e-05
3.62977e-05
2.00787e-05
0.000302643
0.000152581
5.63256e-05
2.83443e-05
0.00134473
0.00160994
0.00101868
0.000225818
0.000121761
0.00166743
0.0020381
0.00206709
5.8262e-05
5.8262e-05
0.000620564
0.00208171
0.00103988
0.000216245
0.000308027
0.00125584
0.00243545
0.0024355
0.00243432
0.00241843
0.00117243
0.00127862
0.00106247
0.000672408
9.04019e-07
2.34247e-06
1.72672e-07
6.93792e-08
1.97002e-08
1.29423e-07
1.73007e-07
2.37291e-07
3.81444e-09
1.05064e-08
4.86832e-09
1.88464e-10
1.45104e-10
3.09335e-10
2.63206e-10
1.82693e-10
5.05842e-12
1.48734e-11
2.60663e-11
2.97841e-11
1.46263e-12
2.21787e-12
3.3461e-12
4.6783e-12
2.87111e-13
3.55285e-13
4.42655e-13
5.41988e-13
3.24687e-14
3.57349e-14
4.00894e-14
4.91121e-14
1.90883e-15
2.25407e-15
2.89645e-15
3.91956e-15
1.67648e-16
2.62071e-16
4.4671e-16
6.54302e-16
4.5801e-17
8.27488e-17
1.55846e-16
2.36345e-16
1.69832e-17
3.15508e-17
6.07112e-17
9.45454e-17
5.19508e-18
9.55374e-18
1.85651e-17
3.00778e-17
1.04744e-18
1.8816e-18
3.64963e-18
6.15729e-18
1.31058e-19
2.27172e-19
4.25018e-19
7.36874e-19
1.20401e-20
2.00093e-20
3.55129e-20
6.38079e-20
1.14772e-21
1.82435e-21
3.37094e-21
6.81317e-21
1.25242e-22
1.89749e-22
4.52215e-22
1.07875e-21
1.26873e-23
1.87742e-23
7.06014e-23
1.63262e-22
9.54111e-25
1.43e-24
8.06066e-24
1.35369e-23
4.74175e-26
7.41026e-26
4.51292e-25
4.57985e-25
1.23462e-27
2.04882e-27
7.52906e-27
1.2631e-26
0.992463
0.896256
0.885438
0.907498
0.977655
0.90217
0.275051
0.0631842
0.0755673
0.412173
0.392036
0.00693873
0.00651027
0.00629442
0.00616618
0.0357799
0.201577
0.319565
0
0.975146
0.950171
0.461224
0.570907
0.970603
0.641892
0.0384664
0.053661
0.189924
0.413531
0.139018
0.00709211
0.00700701
0.00746688
0.019887
0.184488
0.24224
0.231472
0.43883
0.387865
0.502869
0.459954
0.729478
0.934021
0.365097
0.0307151
0.0500157
0.370073
0.40996
0.0640624
0.00819983
0.0190259
0.0628289
0.0439501
0.0563297
0.0847517
0.291182
0.624391
0.00990557
0.217336
0.760202
0.883331
0.890731
0.309973
0.0269335
0.0760974
0.391582
0.395926
0.0286234
0.0123084
0.188205
0.403906
0.253724
0.0630918
0.0709421
0.176715
0.696328
0.00357703
0.0858917
0.671276
0.872477
0.853331
0.243053
0.0245123
0.0724513
0.391582
0.370577
0.0403652
0.0777862
0.413945
0.418524
0.418524
0.326043
0.216925
0.31191
0.93911
0.00186049
0.00844348
0.383044
0.861705
0.656599
0.0531476
0.0237928
0.0380037
0.312926
0.34298
0.0921274
0.34884
0.350807
0.335872
0.323465
0.499306
0.604173
0.724835
1
0.00323078
0.00529297
0.149194
0.663813
0.631554
0.0238218
0.0240572
0.0237964
0.301816
0.0815942
0.0982577
0.0718121
0.00703344
9.67732e-05
0.000228711
0.000818758
0.0340167
0.294337
0.706315
0.0845114
0.15343
0.482461
0.758427
0.748446
0.31498
0.0986943
0.331949
0.447098
7.12965e-05
6.61896e-05
6.68113e-05
9.64205e-05
1.7746e-05
2.03147e-05
0.000115466
0.00070877
0.00324515
0.170385
0.74289
0.754877
0.758272
0.757595
0.758216
0.756247
0.693114
0.721188
0.560206
6.60565e-05
6.60489e-05
4.22698e-05
1.82251e-05
1.55018e-05
1.12964e-05
8.16498e-06
9.36412e-06
0.00971216
0.232328
0.415604
0.28901
0.269206
0.323283
0.57544
0.724989
0.721199
0.721188
0.642782
0.184303
6.58101e-05
4.27302e-05
1.52558e-05
1.13029e-05
9.92947e-06
9.95242e-06
9.34543e-06
0.0142495
0.491118
0.338211
0.229801
0.235596
0.290415
0.248562
0.306556
0.388115
0.372315
0.310592
0.309176
0.139979
0.000242749
4.85767e-05
1.53807e-05
6.99471e-06
9.91891e-06
1.09932e-05
0.00158797
0.0495214
0.145759
0.174848
0.151215
0.168971
0.235447
0.242803
0.213416
0.113833
0.0388684
0.0673249
0.0862388
0.0158508
0.000103645
9.43548e-06
5.86225e-07
9.43963e-06
0.000282476
0.000309243
0
1.25315e-05
1.07864e-05
9.03871e-06
1.39292e-05
0.000477495
0.0104511
0.00674842
6.10386e-05
4.30187e-05
2.73665e-05
0.00565453
0.00583231
0.000149943
1.40421e-06
1.85759e-08
2.84366e-05
0.00369927
0.000497168
0
1.07863e-05
9.03871e-06
6.82688e-06
1.11986e-05
1.97701e-05
1.14107e-05
7.40329e-06
7.22664e-05
3.5061e-05
2.18123e-05
4.63292e-05
1.16402e-06
1.22357e-05
2.68899e-07
1.33298e-08
0.000371947
0.00403144
0.000593079
-6.18192e-20
0.000115871
6.13604e-06
6.88343e-06
1.167e-05
9.7835e-06
7.44247e-07
5.17272e-07
1.19266e-06
1.77461e-07
1.73872e-07
1.18744e-07
1.4407e-08
1.43242e-08
1.33354e-08
1.19884e-08
0.000577543
0.0040449
0.000429976
-1.239e-19
0.00195987
3.45408e-05
2.13647e-06
1.15632e-05
3.75759e-06
4.13596e-07
2.56364e-07
2.15448e-07
1.77461e-07
2.94452e-07
5.06052e-07
1.47089e-08
1.40941e-08
1.27917e-08
1.08092e-08
0.000570807
0.00401873
0.000462612
0.00248189
0.00208914
0.00108275
6.51879e-08
1.25722e-07
5.40568e-06
5.71969e-07
5.66186e-07
1.48002e-06
8.46337e-07
2.16681e-06
2.22241e-06
4.54332e-07
1.30338e-08
1.22083e-08
1.03954e-08
0.000449275
0.00394194
0.000481201
0.017784
0.00208914
0.000598792
1.73439e-08
1.37479e-08
7.3329e-10
7.84016e-06
9.189e-06
9.189e-06
3.26948e-06
2.95714e-06
2.13336e-06
4.26293e-07
1.17678e-08
1.03965e-08
1.03938e-08
0.000221906
0.0026842
0.000223926
0.018626
0.00179585
5.76065e-07
1.62618e-08
9.55487e-10
3.85344e-10
4.30721e-10
6.63727e-07
9.43574e-07
1.53824e-06
1.14612e-06
9.96011e-08
6.19151e-10
1.31491e-08
1.1212e-08
1.03954e-08
0.00019605
9.32491e-05
3.7738e-05
1.23638e-19
6.91965e-08
9.09228e-09
1.20273e-09
7.17594e-10
2.62868e-10
3.79122e-10
4.12287e-10
4.2512e-10
4.33395e-10
4.43685e-10
4.83685e-10
5.64989e-10
1.54029e-08
1.95255e-08
1.31769e-08
0.000205953
2.05481e-05
5.32316e-07
1.94569e-38
8.71218e-09
1.20285e-09
2.41458e-10
2.49501e-10
2.53722e-10
4.00961e-10
4.02616e-10
4.1514e-10
4.29564e-10
1.10241e-09
1.55119e-09
6.19151e-10
1.3421e-08
2.82219e-08
5.79301e-09
0.000201883
9.86047e-05
4.04044e-05
5.78785e-07
1.99732e-07
6.07656e-09
9.34817e-11
1.17656e-10
2.05672e-10
4.15237e-10
5.53938e-10
5.54444e-10
7.53894e-10
2.46266e-09
2.88591e-09
1.13784e-09
5.83707e-09
2.84574e-08
4.46727e-09
0.000169368
0.000307063
0.000167877
0
1.08753e-10
9.69098e-11
9.08862e-11
1.1589e-10
1.8877e-10
3.63524e-10
5.17097e-10
4.83503e-10
9.05229e-10
2.69945e-09
2.89239e-09
1.81922e-09
5.48371e-09
1.21083e-08
3.97764e-09
0.000212058
0.000307063
0.000184203
3.1241e-07
1.32568e-10
9.22476e-11
9.03304e-11
1.01781e-10
1.84127e-10
3.37301e-10
3.80844e-10
3.97238e-10
7.02685e-10
1.89514e-09
2.46644e-09
2.14175e-09
6.07137e-09
3.85944e-09
3.87438e-09
0.000171776
0.000307063
5.59706e-05
5.47662e-24
2.48071e-11
1.64812e-11
1.87815e-11
4.33866e-11
1.27081e-10
2.1404e-10
3.06215e-10
3.76866e-10
4.48744e-10
8.6304e-10
1.05209e-09
1.68239e-09
3.34509e-09
3.63274e-09
3.81506e-09
4.98957e-05
7.84831e-05
3.39431e-06
-1.34839e-23
4.77339e-12
5.1276e-12
9.59327e-12
3.20321e-11
7.28897e-11
1.42161e-10
2.53971e-10
2.60979e-10
3.71089e-10
5.03294e-10
7.87008e-10
2.18091e-09
3.60982e-09
4.17992e-09
4.08275e-09
1.01294e-10
6.77278e-11
1.70986e-11
-4.6953e-27
7.44256e-13
1.47424e-12
5.41384e-12
1.87441e-11
4.57039e-11
1.23268e-10
1.4661e-10
1.49476e-10
3.59063e-10
7.86455e-10
3.34091e-09
1.03461e-08
5.09797e-09
4.01015e-09
3.30872e-09
1.22939e-09
5.16495e-10
7.72099e-10
5.88367e-12
9.4861e-14
4.87383e-13
3.05666e-12
1.28995e-11
4.08831e-11
1.1204e-10
1.33159e-11
1.0647e-08
1.64443e-09
3.28794e-08
3.98785e-07
1.55963e-06
1.36905e-07
2.13302e-09
1.34299e-09
1.26666e-09
1.65817e-09
1.53227e-09
8.90732e-12
1.4386e-14
3.44412e-13
2.43066e-12
1.46792e-11
6.2574e-11
5.36403e-11
1.26839e-11
2.28889e-07
2.81872e-07
2.91033e-07
3.3386e-06
3.89483e-06
2.36766e-06
4.15058e-08
2.13302e-09
3.90605e-09
2.11324e-09
1.31331e-09
9.43287e-25
9.89739e-15
2.86675e-13
2.25173e-12
3.51861e-11
7.07944e-11
4.95143e-11
1.21551e-11
3.07348e-07
6.2997e-07
6.36854e-07
3.89085e-06
3.89868e-06
3.89085e-06
2.11423e-06
3.99215e-07
1.63928e-08
1.28321e-09
7.47293e-10
-1.39078e-19
8.48558e-15
1.39385e-13
2.61235e-12
4.00935e-11
7.07944e-11
4.94183e-11
1.17214e-11
5.21949e-08
4.3918e-07
6.67217e-07
2.20445e-06
3.70943e-06
3.87644e-06
3.80969e-06
1.76731e-06
4.18805e-08
1.93523e-09
5.66313e-10
-1.35483e-16
2.96548e-15
6.42472e-14
7.62451e-13
1.76862e-11
5.26619e-11
4.10374e-11
1.15798e-11
8.84953e-13
7.18666e-09
3.24764e-07
1.16755e-09
1.0423e-07
1.838e-06
2.25382e-06
1.39165e-06
6.2506e-08
2.46354e-08
3.05062e-10
-1.93661e-14
5.38971e-16
2.26058e-14
4.34775e-13
6.17224e-12
1.81731e-11
1.76742e-11
9.50396e-12
7.82757e-13
5.74668e-15
5.74672e-15
9.51079e-10
9.69798e-10
9.10297e-10
8.90643e-10
8.95241e-10
3.77957e-08
4.11416e-08
1.02039e-10
9.17915e-05
1.06705e-16
6.08999e-15
1.03116e-13
9.4417e-13
3.26992e-12
3.82336e-12
2.91251e-12
9.5793e-13
3.65226e-14
5.94526e-15
6.70649e-09
4.89199e-09
2.20651e-09
1.38604e-09
8.5786e-10
7.85681e-10
2.17165e-08
1.97368e-11
0.000608352
2.0871e-17
8.21433e-16
9.709e-15
4.11481e-14
2.29668e-13
5.07437e-13
4.61868e-13
2.65737e-13
3.96426e-14
3.19797e-17
5.63147e-09
5.78008e-09
5.15426e-09
4.15538e-09
9.6683e-10
7.72548e-10
3.22318e-10
1.59309e-11
0.000515437
3.05414e-18
7.31951e-17
5.62357e-16
2.61659e-15
2.50334e-14
5.46347e-14
4.57789e-14
2.0987e-14
2.61784e-15
0
-3.35049e-17
-3.4521e-17
1.9293e-09
2.89841e-09
6.92399e-10
7.88544e-10
1.9521e-11
1.58146e-11
0
4.0296e-19
9.94782e-18
1.26137e-16
5.96336e-16
2.24127e-15
2.22555e-15
1.4929e-15
4.29302e-16
-9.13351e-34
-4.05534e-17
-6.12339e-17
-5.70539e-17
-4.11782e-17
-2.53831e-17
-1.38517e-17
6.34776e-10
7.29301e-11
1.86057e-11
1.60385e-13
8.74678e-20
2.27519e-18
5.80349e-17
2.04576e-16
1.73113e-16
9.18376e-17
2.33053e-17
1.37266e-35
-2.49157e-17
-4.74251e-17
-5.01385e-17
-3.94556e-17
-2.52757e-17
-1.40553e-17
-6.88448e-18
9.70216e-11
8.89737e-12
2.19127e-11
1.04705e-12
2.28745e-20
4.62615e-19
1.95256e-17
1.92168e-17
1.01097e-17
-1.37266e-35
-2.69147e-18
-5.25983e-18
-2.31054e-17
-3.31788e-17
-2.84099e-17
-1.87409e-17
-1.02633e-17
-4.92781e-18
-2.0656e-18
-4.66558e-19
-5.85391e-20
2.08112e-11
8.60462e-13
4.15157e-21
5.36675e-20
1.04664e-18
7.94474e-19
1.79839e-19
-1.91351e-18
-3.08788e-18
-4.36443e-18
-1.39126e-17
-1.51921e-17
-1.00707e-17
-5.28748e-18
-2.35922e-18
-9.39656e-19
-3.25406e-19
-6.86831e-20
-8.24898e-21
9.89412e-12
2.17384e-13
3.72617e-22
2.82566e-21
1.78536e-20
1.14887e-20
2.34193e-21
-1.16514e-18
-1.39612e-18
-1.90602e-18
-4.94234e-18
-3.75688e-18
-1.69944e-18
-6.06237e-19
-1.85059e-19
-5.14447e-20
-1.25536e-20
-2.11294e-21
-2.112e-22
9.56629e-13
1.73294e-14
1.00338e-23
3.54043e-23
5.52884e-23
4.6474e-23
6.30211e-24
-3.14682e-19
-1.84512e-19
-2.63626e-19
-8.19726e-19
-3.85646e-19
-9.81539e-20
-1.86408e-20
-2.86367e-21
-3.7805e-22
-4.26228e-23
-4.03438e-24
-3.87684e-25
-3.09932e-26
-6.50458e-28
)
;

boundaryField
{
    leftWall
    {
        type            zeroGradient;
    }
    rightWall
    {
        type            zeroGradient;
    }
    lowerWall
    {
        type            zeroGradient;
    }
    atmosphere
    {
        type            inletOutlet;
        inletValue      uniform 0;
        value           nonuniform List<scalar> 
46
(
-7.72356e-27
-7.84449e-28
-2.67926e-28
-1.08338e-28
-2.12852e-29
-2.56349e-30
-1.73674e-31
-2.0493e-33
4.72148e-34
1.97532e-33
4.74149e-33
3.89549e-33
1.37115e-33
3.02582e-34
-3.40783e-26
-2.34916e-26
-7.79216e-27
-1.61749e-27
-2.2649e-28
-2.07892e-29
4.42132e-30
1.89188e-28
8.44126e-28
1.23462e-27
2.04882e-27
7.52906e-27
1.2631e-26
0
0
0
0
0
0
0
0
0
0
0
0
0
0
0
0
0
0
0
)
;
    }
    defaultFaces
    {
        type            empty;
    }
}


// ************************************************************************* //
