/*--------------------------------*- C++ -*----------------------------------*\
| =========                 |                                                 |
| \\      /  F ield         | OpenFOAM: The Open Source CFD Toolbox           |
|  \\    /   O peration     | Version:  5.x                                   |
|   \\  /    A nd           | Web:      www.OpenFOAM.org                      |
|    \\/     M anipulation  |                                                 |
\*---------------------------------------------------------------------------*/
FoamFile
{
    version     2.0;
    format      ascii;
    class       surfaceScalarField;
    location    "0.8";
    object      alphaPhi10;
}
// * * * * * * * * * * * * * * * * * * * * * * * * * * * * * * * * * * * * * //

dimensions      [0 3 -1 0 0 0 0];

internalField   nonuniform List<scalar> 
4432
(
-4.35138e-06
4.35138e-06
-9.32412e-06
4.97274e-06
-1.40019e-05
4.6778e-06
-1.85801e-05
4.57818e-06
-2.2138e-05
3.55791e-06
-2.29056e-05
7.67613e-07
-2.1008e-05
-1.89757e-06
-1.84329e-05
-2.57514e-06
-1.67703e-05
-1.6626e-06
-1.6154e-05
-6.1626e-07
-1.61895e-05
3.54278e-08
-1.65997e-05
4.10242e-07
-1.72813e-05
6.81586e-07
-1.8063e-05
7.81737e-07
-1.83389e-05
2.7587e-07
-1.75489e-05
-7.90003e-07
-1.71384e-05
4.01604e-07
-2.29399e-05
4.82956e-06
-2.78991e-05
4.95915e-06
-2.70961e-05
-7.99307e-07
-2.02502e-05
-6.80847e-06
-9.72521e-06
-1.0485e-05
-9.72997e-06
-6.65198e-06
1.10034e-05
-1.25172e-05
1.08379e-05
-1.73684e-05
9.52901e-06
-2.153e-05
8.73977e-06
-2.40839e-05
6.1118e-06
-2.40862e-05
7.69988e-07
-2.18288e-05
-4.15496e-06
-1.89036e-05
-5.50036e-06
-1.69477e-05
-3.61851e-06
-1.61595e-05
-1.40445e-06
-1.59885e-05
-1.35549e-07
-1.606e-05
4.81759e-07
-1.61786e-05
8.00167e-07
-1.6416e-05
1.01915e-06
-1.71965e-05
1.0565e-06
-1.90859e-05
1.33313e-06
-2.09097e-05
3.74931e-06
-2.394e-05
7.33542e-06
-2.38662e-05
3.77648e-06
-1.91651e-05
-5.07827e-06
-1.33696e-05
-1.2323e-05
-6.7585e-06
-1.71841e-05
-1.64885e-05
-6.23781e-06
1.72412e-05
-1.15127e-05
1.61129e-05
-1.62086e-05
1.42249e-05
-2.07141e-05
1.32453e-05
-2.39225e-05
9.3202e-06
-2.43947e-05
1.24221e-06
-2.23811e-05
-6.16864e-06
-1.96372e-05
-8.24418e-06
-1.76611e-05
-5.59463e-06
-1.67488e-05
-2.3168e-06
-1.6409e-05
-4.75332e-07
-1.60303e-05
1.03057e-07
-1.53262e-05
9.61186e-08
-1.43249e-05
1.78178e-08
-1.35597e-05
2.91318e-07
-1.38657e-05
1.67006e-06
-1.44979e-05
4.81974e-06
-1.35603e-05
6.78129e-06
-1.11249e-05
1.20087e-06
-7.85215e-06
-8.49015e-06
-5.08704e-06
-1.52312e-05
-2.22976e-06
-2.04648e-05
-1.87182e-05
-4.98338e-06
2.22245e-05
-9.60155e-06
2.0731e-05
-1.40816e-05
1.87049e-05
-1.83629e-05
1.75266e-05
-2.12838e-05
1.22411e-05
-2.19602e-05
1.91867e-06
-2.08329e-05
-7.29593e-06
-1.94297e-05
-9.64743e-06
-1.83533e-05
-6.67103e-06
-1.77088e-05
-2.96128e-06
-1.74424e-05
-7.41724e-07
-1.71057e-05
-2.33661e-07
-1.63026e-05
-7.07008e-07
-1.48652e-05
-1.41951e-06
-1.29122e-05
-1.66175e-06
-1.06955e-05
-5.46521e-07
-7.87395e-06
1.99818e-06
-4.14806e-06
3.05539e-06
-1.02241e-06
-1.87527e-06
9.54025e-07
-1.0616e-05
9.28142e-07
-1.57676e-05
7.70991e-07
-2.03077e-05
-1.79479e-05
-3.32452e-06
2.55491e-05
-6.97246e-06
2.4379e-05
-1.06388e-05
2.23713e-05
-1.38089e-05
2.06967e-05
-1.56427e-05
1.40749e-05
-1.62223e-05
2.49823e-06
-1.6625e-05
-6.89324e-06
-1.76375e-05
-8.63494e-06
-1.85452e-05
-5.76332e-06
-1.87786e-05
-2.72785e-06
-1.86824e-05
-8.37901e-07
-1.83148e-05
-6.01303e-07
-1.74443e-05
-1.57754e-06
-1.59111e-05
-2.95267e-06
-1.37161e-05
-3.85681e-06
-1.074e-05
-3.5226e-06
-6.62106e-06
-2.12073e-06
-1.90135e-06
-1.66433e-06
1.48058e-06
-5.25719e-06
2.68459e-06
-1.182e-05
2.14232e-06
-1.52254e-05
1.28636e-06
-1.94517e-05
-1.66616e-05
-1.18198e-06
2.6731e-05
-3.30748e-06
2.65045e-05
-5.83401e-06
2.48978e-05
-7.6543e-06
2.2517e-05
-8.20528e-06
1.46259e-05
-8.70482e-06
2.99777e-06
-1.10535e-05
-4.54452e-06
-1.49196e-05
-4.76891e-06
-1.82099e-05
-2.47294e-06
-1.97556e-05
-1.18222e-06
-2.00363e-05
-5.57157e-07
-1.96082e-05
-1.02944e-06
-1.85321e-05
-2.65356e-06
-1.67377e-05
-4.74712e-06
-1.43184e-05
-6.27608e-06
-1.13643e-05
-6.47671e-06
-7.72219e-06
-5.76283e-06
-3.71964e-06
-5.66687e-06
-7.94754e-07
-8.18208e-06
6.14217e-07
-1.32289e-05
6.01203e-07
-1.52124e-05
5.98133e-07
-1.94486e-05
-1.60634e-05
1.05636e-06
2.56747e-05
5.1826e-07
2.70426e-05
-5.12146e-07
2.59282e-05
-7.23764e-07
2.27286e-05
9.48141e-08
1.38073e-05
-9.93673e-07
4.08625e-06
-6.44741e-06
9.09213e-07
-1.29016e-05
1.68526e-06
-1.78862e-05
2.51171e-06
-2.06853e-05
1.61687e-06
-2.14986e-05
2.56118e-07
-2.10452e-05
-1.48281e-06
-1.96964e-05
-4.00244e-06
-1.75029e-05
-6.94053e-06
-1.46138e-05
-9.16528e-06
-1.1391e-05
-9.69949e-06
-7.95039e-06
-9.20342e-06
-4.60336e-06
-9.0139e-06
-2.03855e-06
-1.07469e-05
-6.51885e-07
-1.46156e-05
-1.83958e-08
-1.58459e-05
4.8139e-07
-1.99484e-05
-1.55821e-05
3.48205e-06
2.21926e-05
5.99807e-06
2.45265e-05
7.51604e-06
2.44102e-05
8.75366e-06
2.1491e-05
7.71006e-06
1.48509e-05
1.95793e-06
9.04625e-06
-6.31067e-06
8.54418e-06
-1.32365e-05
8.61111e-06
-1.79587e-05
7.23386e-06
-2.10877e-05
4.74586e-06
-2.25242e-05
1.69267e-06
-2.22991e-05
-1.70794e-06
-2.05027e-05
-5.79882e-06
-1.73882e-05
-1.0055e-05
-1.36914e-05
-1.2862e-05
-1.01383e-05
-1.32525e-05
-6.76424e-06
-1.25775e-05
-3.63947e-06
-1.21387e-05
-1.07249e-06
-1.33138e-05
4.92163e-07
-1.61802e-05
1.62802e-06
-1.69817e-05
1.64551e-06
-1.99659e-05
-1.39365e-05
-1.67908e-05
1.51499e-05
-4.15396e-05
2.47488e-05
-4.79573e-05
6.41766e-06
-3.2291e-05
-1.56662e-05
-3.37408e-06
-2.88947e-05
1.17944e-05
-1.53019e-05
4.98918e-06
6.46809e-06
-1.14353e-05
1.68887e-05
-6.06542e-05
4.51241e-05
-9.21881e-05
3.69309e-05
-6.43209e-05
-2.60614e-05
-5.32363e-06
-6.10435e-05
2.59418e-05
-2.96474e-05
3.32076e-05
-6.04714e-06
2.26822e-05
1.18132e-05
5.39251e-06
1.72897e-05
-1.11788e-05
1.65676e-05
-1.60816e-05
5.27583e-06
-8.63437e-06
-2.71544e-05
4.05382e-05
-4.38874e-05
4.14819e-05
-4.07763e-05
3.312e-06
-2.42862e-05
-3.21549e-05
-1.47389e-07
-5.30329e-05
1.10411e-05
-2.64898e-05
-5.71022e-06
2.38385e-05
-6.02116e-05
7.11691e-05
-0.000105776
8.83896e-05
-6.89814e-05
1.40439e-05
-3.18463e-05
-6.15452e-05
8.24953e-06
-0.000100083
3.05838e-05
-5.33182e-05
4.19264e-05
-2.00379e-05
4.27882e-05
9.37914e-06
2.13532e-05
3.77551e-05
-2.03259e-05
5.96304e-05
-1.40655e-05
1.44007e-05
-1.5607e-05
-2.29677e-05
6.49199e-05
-3.26264e-05
5.11409e-05
-2.9168e-05
-1.79072e-08
-1.71102e-05
-4.39648e-05
-9.84003e-07
-6.91078e-05
-2.00123e-07
-2.72732e-05
-3.58364e-05
5.91767e-05
-9.30939e-05
0.000128524
-6.6357e-05
7.10047e-05
-2.96719e-05
-1.18976e-06
-2.26206e-05
-4.2587e-05
6.77856e-06
-0.000129952
2.4581e-05
-7.23473e-05
3.65778e-05
-3.11684e-05
4.16752e-05
2.97988e-06
4.48515e-05
4.40164e-05
2.16836e-05
8.51446e-05
-3.1389e-06
4.98727e-05
-4.02442e-05
-1.53809e-05
8.22618e-05
-1.9432e-05
5.42509e-05
-1.62172e-05
-1.38971e-06
-9.92853e-06
-3.9046e-05
-4.50334e-06
-7.416e-05
-1.99662e-05
-1.18093e-05
-6.72882e-05
0.000106511
-9.48537e-05
0.000160469
-1.22212e-05
2.57915e-05
-1.16035e-05
-6.35788e-06
-1.52253e-05
-1.93497e-05
6.97155e-06
-0.000151958
1.79157e-05
-8.18824e-05
2.94857e-05
-4.01842e-05
4.66487e-05
-8.73683e-06
5.98193e-05
3.22497e-05
5.82999e-05
8.3745e-05
2.34371e-05
6.18005e-05
-2.73941e-05
-7.13511e-06
8.93969e-05
-7.18574e-06
5.68571e-05
-6.58524e-06
-2.21572e-06
-4.16819e-06
-4.16805e-05
-1.22272e-05
-6.56313e-05
-4.38478e-05
1.98239e-05
-8.81739e-05
0.000150911
-3.4942e-05
0.000116315
-9.79013e-06
1.30847e-05
-8.39886e-06
-9.4785e-06
-4.56065e-06
-8.10121e-05
3.27477e-06
-0.000158059
9.22975e-06
-4.35e-05
1.61929e-05
-1.71713e-05
2.67289e-05
-7.18483e-06
4.51205e-05
1.39773e-05
5.98383e-05
5.50672e-05
2.66648e-05
5.88081e-05
1.66203e-06
2.62613e-06
8.67707e-05
4.44658e-06
5.65175e-05
3.9314e-06
-1.92918e-06
8.52736e-07
-4.09418e-05
-2.32747e-05
-4.14606e-05
-6.58708e-05
6.24931e-05
-9.52714e-05
0.00018161
-1.26643e-05
6.00343e-05
-6.96564e-06
4.15284e-06
-7.5657e-06
-9.53571e-06
-2.31252e-06
-0.000120348
4.78654e-07
-0.000130212
3.53464e-07
-1.89607e-06
1.06967e-06
-6.32547e-07
5.26001e-06
-1.72154e-07
1.62318e-05
8.90184e-07
3.50133e-05
1.26097e-05
2.2623e-05
6.79402e-05
2.504e-05
1.15587e-05
7.5212e-05
1.69702e-05
5.094e-05
1.47179e-05
-2.59002e-06
4.70354e-06
-3.41202e-05
-3.27158e-05
-3.94155e-06
-7.75094e-05
0.000107541
-4.75868e-05
0.000159933
-6.99082e-06
3.38785e-05
-6.03239e-06
-3.8851e-08
-4.97307e-06
-2.05623e-05
-2.82619e-06
-0.00012991
1.04897e-06
-2.07634e-05
2.25673e-07
-1.10699e-06
3.6618e-07
-7.97764e-07
3.04902e-07
-1.31162e-07
3.63555e-07
8.11246e-07
7.68085e-06
7.85746e-07
2.3144e-05
5.93036e-05
3.7597e-05
1.43936e-05
6.08184e-05
2.0211e-05
3.39754e-05
2.44777e-05
-5.27299e-06
5.81712e-06
-1.56213e-05
-3.91511e-05
4.11709e-05
-7.94082e-05
0.000148105
-2.08271e-05
0.000113879
-8.18047e-06
1.84538e-05
-7.33584e-06
-4.12237e-06
-5.85273e-06
-8.86388e-05
-2.11691e-06
-0.000121596
-2.14185e-07
-1.58614e-06
9.14164e-09
-1.36445e-06
1.55387e-07
-9.78227e-07
2.42974e-07
-2.43732e-07
1.07e-07
9.4016e-07
-3.48362e-06
7.01757e-06
-4.91125e-07
5.98617e-05
2.87479e-06
4.343e-06
3.47325e-06
2.5235e-06
7.28469e-06
-2.94147e-06
8.10692e-06
-1.11644e-05
8.83448e-06
-2.05627e-05
8.35497e-06
-3.12132e-05
8.55714e-06
-3.87453e-05
9.05036e-06
-4.11984e-05
8.36818e-06
-4.34514e-05
9.48681e-06
-4.70563e-05
8.35073e-06
-4.90918e-05
3.72824e-06
-4.69373e-05
-3.862e-06
-4.01548e-05
-1.25797e-05
-3.13471e-05
-1.88596e-05
-2.29889e-05
-2.12157e-05
-1.59005e-05
-2.03365e-05
-9.51451e-06
-1.89599e-05
-3.59253e-06
-1.80578e-05
1.46707e-06
-1.83707e-05
4.85435e-06
-1.95643e-05
7.19551e-06
-1.93204e-05
6.48172e-06
-1.92495e-05
-1.67518e-05
9.29873e-06
-8.47919e-06
-1.49955e-06
-1.01923e-05
-3.21234e-07
-1.351e-05
-4.53186e-07
-1.97916e-05
-8.13659e-07
-2.87137e-05
-2.02965e-07
-3.61918e-05
4.22712e-07
-4.0206e-05
5.35471e-07
-4.36086e-05
3.43052e-07
-4.82565e-05
2.05496e-07
-5.31922e-05
1.30057e-06
-5.49023e-05
7.02089e-07
-5.38422e-05
-5.65831e-06
-5.25246e-05
-1.22834e-05
-5.0323e-05
-1.47767e-05
-4.54323e-05
-1.4919e-05
-3.77292e-05
-1.48011e-05
-2.89628e-05
-1.43356e-05
-2.05342e-05
-1.33185e-05
-1.36028e-05
-1.20283e-05
-8.48745e-06
-1.13522e-05
-5.97343e-06
-1.06002e-05
-2.9358e-06
-1.23283e-05
-1.47768e-05
5.47899e-06
-1.36625e-06
-1.32799e-07
-1.74496e-06
3.21735e-08
-2.24275e-06
-7.33293e-09
-3.10375e-06
-9.20741e-08
-6.41479e-06
-7.02291e-08
-1.09964e-05
-4.35636e-08
-1.60442e-05
-1.83488e-08
-2.40121e-05
-2.15734e-06
-4.86291e-05
-9.93474e-06
-9.38124e-05
-1.12197e-05
-0.000113522
-7.24255e-06
-0.000115005
-1.83385e-06
-8.80599e-05
-3.48841e-07
-5.61816e-05
-3.0082e-06
-3.74577e-05
-4.20998e-06
-2.75772e-05
-3.27717e-06
-2.02241e-05
-2.76646e-06
-1.36279e-05
-2.09811e-06
-9.20864e-06
-8.19247e-07
-6.61368e-06
-2.29605e-07
-6.44853e-06
-3.55089e-08
-6.13536e-06
-2.1671e-08
-3.6342e-08
-3.316e-06
-1.16499e-07
-1.61091e-08
-1.00066e-07
1.07729e-08
-1.17429e-07
2.52057e-09
-2.2812e-07
-2.96964e-09
-2.91063e-07
-1.20212e-08
-2.63851e-07
-1.39573e-08
-5.12792e-07
-2.94933e-08
-3.86073e-05
-6.39006e-07
-9.82725e-05
-3.45283e-06
-0.000133461
-2.47599e-06
-3.02175e-05
5.91401e-07
-1.32719e-05
-6.8584e-07
-1.54858e-05
-4.80322e-06
-1.6811e-05
-1.31769e-05
-9.84236e-06
-1.12191e-05
-4.10852e-06
-9.51595e-06
-1.30155e-06
-5.58346e-06
-1.76686e-07
-3.09164e-06
-2.80854e-08
-9.20485e-07
1.71067e-08
-2.74601e-07
1.85782e-08
-3.71803e-08
-3.26802e-09
-2.46913e-11
2.48929e-08
-6.47029e-08
-1.62362e-08
1.32401e-10
-9.10954e-09
2.11253e-09
-8.88075e-09
7.80914e-10
-1.42524e-08
2.65156e-10
-2.93154e-08
-1.38972e-10
-6.93788e-08
-8.8992e-10
-3.71387e-07
-1.07849e-09
-1.22744e-06
-2.17148e-08
-5.10807e-06
-2.72101e-08
-6.58518e-06
-2.09733e-07
-1.53824e-05
-5.49246e-07
-8.47453e-05
-8.37755e-06
-8.65238e-05
-2.21423e-05
-7.71854e-05
-2.27293e-05
-6.89962e-05
-3.30633e-05
-4.35274e-05
-3.77952e-05
-1.88849e-05
-3.59215e-05
-2.66987e-06
-2.06005e-05
-7.55956e-07
-2.73017e-06
-1.4338e-07
-8.67361e-07
-9.46693e-08
-8.6118e-08
-8.74602e-08
-7.45972e-09
3.21316e-08
-9.49255e-08
-1.2125e-09
1.3142e-09
-8.84027e-10
7.50416e-10
-6.6533e-10
2.42683e-10
-7.93649e-10
9.44441e-11
-1.30713e-09
3.44306e-11
-3.43957e-09
-5.66275e-12
-1.30408e-08
-4.8321e-11
-5.65234e-08
-2.06917e-10
-1.86269e-07
1.15142e-09
-4.7961e-07
1.73649e-08
-3.9139e-06
-1.31179e-07
-5.10269e-05
-1.99219e-06
-7.38723e-05
-8.76281e-06
-8.02949e-05
-1.65e-05
-8.05831e-05
-3.26757e-05
-7.73183e-05
-4.09672e-05
-7.31421e-05
-3.9706e-05
-4.56467e-05
-4.47559e-05
-7.6656e-06
-3.30848e-05
-5.12883e-07
-5.11379e-06
-1.72671e-07
-4.19479e-07
-1.52061e-07
-2.82958e-08
1.78435e-08
-1.39511e-07
4.139e-10
9.07322e-10
-4.63029e-11
7.02977e-10
-3.78946e-11
1.1852e-10
-3.39883e-11
2.51563e-11
-4.17987e-11
6.65859e-12
-1.43338e-10
1.75956e-11
-6.58397e-10
7.00301e-11
-3.42142e-09
5.79108e-10
-1.11732e-07
5.27502e-09
-2.92897e-07
9.4741e-09
-1.88801e-07
-3.66043e-09
-2.14834e-06
-2.70282e-08
-1.0718e-05
-2.01231e-07
-2.71494e-05
-1.27957e-06
-5.56269e-05
-6.25981e-06
-7.65197e-05
-2.01376e-05
-7.7613e-05
-3.76889e-05
-7.51891e-05
-4.65907e-05
-6.47394e-05
-4.32799e-05
-1.09724e-05
-2.9829e-05
-5.31169e-07
-1.07032e-05
-2.08421e-07
-3.44205e-07
1.08665e-08
-2.0439e-07
4.56459e-10
4.53066e-10
9.63311e-12
1.10849e-09
3.35646e-13
6.39812e-11
1.78661e-13
1.26593e-11
3.72685e-14
1.50282e-12
3.16287e-13
3.89805e-12
7.10585e-12
1.48818e-11
1.12874e-10
1.14324e-10
-5.1147e-10
4.98133e-10
-5.50405e-09
2.12092e-10
-2.11514e-09
-1.38477e-09
-2.88454e-08
-4.85121e-12
-2.27502e-07
-3.40155e-09
-1.47102e-06
-4.2486e-08
-7.42626e-06
-3.40813e-07
-2.65981e-05
-1.34475e-06
-6.14167e-05
-1.06804e-05
-8.11252e-05
-2.66277e-05
-8.19174e-05
-4.2082e-05
-7.29708e-05
-3.63074e-05
-1.18883e-05
-2.69736e-05
-9.9454e-07
-1.10818e-05
-3.4568e-07
-6.50618e-07
1.71289e-10
2.81777e-10
4.71008e-11
1.2467e-09
1.05286e-12
9.66059e-11
2.61675e-13
1.00944e-11
3.68618e-13
1.44085e-12
9.91409e-13
1.59765e-12
9.77839e-12
2.43748e-12
8.58634e-11
1.29247e-11
4.51838e-10
5.18361e-11
8.13241e-10
4.21093e-11
9.66065e-12
-2.03646e-10
-3.42726e-11
-8.90407e-12
-3.30614e-09
-7.39212e-11
-4.55779e-08
-5.13135e-10
-3.74729e-07
-1.36508e-08
-1.63245e-06
-1.01733e-07
-1.15477e-05
-8.43242e-07
-4.69587e-05
-3.52543e-06
-8.12472e-05
-1.8645e-05
-9.01072e-05
-2.69428e-05
-8.59714e-05
-3.30806e-05
-4.16197e-05
-2.00513e-05
-1.34482e-05
-7.92957e-06
1.27278e-10
1.58866e-10
1.75283e-10
1.16625e-09
2.37568e-11
6.95211e-10
1.25521e-12
4.06582e-11
2.08345e-13
8.08168e-13
1.92988e-13
3.66416e-13
1.3313e-12
6.65653e-13
1.02664e-11
1.39252e-12
5.24102e-11
1.97677e-12
1.07146e-10
4.20873e-12
1.63486e-11
-1.61919e-11
8.84124e-12
-6.5227e-12
-2.45e-12
-5.0717e-12
-5.09672e-10
-4.31431e-12
-1.40858e-08
-2.58812e-11
-1.13317e-07
-3.41217e-09
-9.18183e-07
-4.21843e-08
-4.21811e-06
-2.59875e-07
-2.1761e-05
-1.23433e-06
-6.98252e-05
-6.94138e-06
-8.74753e-05
-1.50631e-05
-8.63575e-05
-1.95096e-05
-1.58923e-05
-8.23565e-05
9.79966e-11
6.678e-11
3.27607e-10
8.83985e-10
1.38773e-10
8.50106e-10
7.06768e-12
3.4573e-10
9.6154e-13
6.45292e-12
1.96029e-13
4.98407e-13
1.93041e-13
2.13971e-13
1.11691e-12
2.35383e-13
6.13242e-12
-1.82885e-12
1.27095e-11
-1.00125e-12
4.08021e-12
-6.91593e-13
4.09859e-12
-1.29224e-12
1.91721e-12
5.41671e-13
-8.72375e-13
-1.04008e-14
-2.33079e-11
-1.02086e-12
-3.38666e-09
-1.9116e-11
-4.50059e-08
-9.9935e-10
-2.93198e-07
-1.227e-08
-1.44981e-06
-7.817e-08
-7.89353e-06
-4.86373e-07
-3.19262e-05
-1.57583e-06
-5.75828e-05
-1.24351e-05
-1.90005e-05
-5.2804e-05
5.85286e-11
8.25137e-12
2.92763e-10
4.00209e-10
3.09999e-10
7.81239e-10
2.42837e-11
2.61667e-10
1.6997e-12
1.25258e-11
4.5191e-13
1.29152e-12
1.3209e-13
1.84975e-13
2.16636e-13
8.75485e-14
1.54055e-12
2.86233e-13
1.39797e-12
-6.21752e-14
1.13774e-12
5.23834e-13
2.42668e-12
2.20604e-12
1.39775e-12
2.45453e-12
5.48701e-13
3.17494e-13
4.03369e-15
1.01962e-13
-1.89351e-11
2.269e-13
-1.0195e-09
3.14253e-13
-1.31753e-08
-1.23034e-10
-8.84785e-08
-2.41165e-09
-5.61253e-07
-1.33756e-08
-2.12562e-06
-4.77529e-09
-1.45991e-05
-1.18002e-08
-4.63257e-08
-2.73975e-05
7.83403e-12
4.17336e-13
1.28434e-10
9.75626e-12
1.46838e-10
6.04779e-11
1.43076e-11
1.30547e-11
1.00421e-13
1.72519e-11
8.92564e-14
1.04684e-12
5.5662e-14
1.62453e-13
6.07815e-14
6.59125e-14
3.41227e-13
1.24973e-13
2.72321e-13
2.06596e-14
6.68555e-13
2.42208e-13
2.38578e-12
2.98278e-12
2.21832e-12
4.2648e-12
1.43132e-13
6.63041e-13
1.67981e-13
1.02829e-13
1.1068e-13
2.31806e-13
-4.98807e-12
5.42204e-12
-1.30011e-10
5.72599e-12
-2.16134e-09
-4.05166e-10
-4.91903e-09
-1.15566e-08
-6.44087e-09
-2.7229e-09
-1.47499e-08
-3.94373e-09
-2.57463e-08
-3.32936e-08
4.40554e-13
1.38621e-13
8.41978e-12
1.44806e-12
1.54934e-11
4.01989e-12
5.36183e-12
-8.06145e-13
2.13027e-12
1.10472e-12
8.92828e-14
8.35023e-13
3.10039e-14
8.6034e-14
3.3677e-14
5.94852e-14
3.70031e-14
2.95471e-14
4.4024e-14
1.5386e-14
2.50874e-13
7.79902e-14
2.00853e-12
1.75209e-12
1.23487e-12
1.66542e-12
5.12723e-14
4.73955e-13
4.77925e-14
6.79648e-14
2.07447e-13
7.04887e-14
4.60169e-12
1.02534e-12
-5.31846e-10
5.42183e-10
-3.44814e-08
1.10079e-08
-4.18769e-08
8.73762e-09
-1.71125e-08
2.5813e-09
-1.86774e-08
-2.54275e-10
-1.60978e-08
-1.05606e-07
-8.03599e-15
7.96183e-14
1.11945e-12
1.95944e-13
2.4866e-12
5.73519e-13
5.62491e-13
3.71794e-14
1.83033e-13
2.49363e-14
1.14669e-13
1.12218e-13
2.60879e-14
4.4933e-14
2.33041e-14
4.21586e-14
1.2365e-14
2.24143e-14
1.49934e-14
1.01568e-14
2.01791e-13
1.3131e-13
6.25324e-13
1.24997e-13
3.81886e-13
6.593e-14
4.54239e-14
1.36623e-13
2.39643e-14
5.33399e-14
5.5013e-14
3.76993e-14
1.00235e-12
7.45855e-14
3.06859e-10
9.0232e-11
-2.48151e-08
6.80136e-09
-3.00478e-08
3.28254e-08
-1.16757e-08
5.97496e-08
-2.3594e-08
8.09309e-09
-9.94346e-10
-1.06647e-07
-7.18932e-16
1.80154e-14
9.88839e-14
3.79725e-14
2.45228e-13
1.03865e-13
9.26128e-14
2.6317e-14
3.12677e-14
2.83772e-14
1.94682e-14
1.75181e-14
1.19054e-14
1.40891e-14
1.29851e-14
1.67985e-14
7.31516e-15
1.24382e-14
6.69998e-15
8.31648e-15
8.66955e-14
1.30369e-13
5.56764e-14
2.30044e-14
4.45251e-14
1.99654e-14
3.68428e-14
3.70239e-14
1.91119e-14
3.71763e-14
2.0445e-14
3.25553e-14
7.36874e-14
1.80332e-14
9.5487e-11
1.02139e-11
2.85876e-09
6.60418e-10
-1.82135e-08
3.24886e-08
-3.3506e-08
1.02664e-07
-4.09958e-09
3.84361e-08
4.05844e-09
-2.48063e-08
3.36793e-16
5.09375e-15
1.27815e-14
2.14744e-14
2.87654e-14
2.28193e-14
1.26377e-14
1.74126e-14
6.12679e-15
9.37587e-15
4.0484e-15
4.17089e-15
4.27968e-15
5.33818e-15
4.80569e-15
5.56532e-15
3.87433e-15
5.13272e-15
4.00578e-15
5.78471e-15
3.40774e-14
3.27794e-14
1.45084e-14
1.55146e-14
1.41154e-14
1.35668e-14
1.73829e-14
1.79177e-14
1.55214e-14
2.08677e-14
1.682e-14
2.41276e-14
2.67663e-14
9.60611e-15
8.72923e-12
1.54945e-12
5.29388e-10
1.38256e-10
2.39189e-08
4.94252e-09
1.17922e-08
7.22809e-08
5.64422e-08
4.56424e-08
2.87406e-08
5.84153e-09
1.44483e-16
1.33266e-15
2.38738e-15
8.16096e-15
4.08403e-15
5.98743e-15
2.50097e-15
4.36656e-15
1.09027e-15
1.6904e-15
9.65187e-16
9.46266e-16
1.52187e-15
1.94079e-15
1.62066e-15
1.81964e-15
1.68797e-15
1.9803e-15
2.6919e-15
3.19571e-15
7.59163e-15
5.29085e-15
6.63907e-15
6.4368e-15
6.77221e-15
7.04481e-15
8.92368e-15
8.45084e-15
9.84589e-15
1.00906e-14
1.16038e-14
1.31414e-14
1.39962e-14
7.10032e-15
1.4179e-12
1.44329e-13
1.24002e-10
1.5496e-11
4.46053e-09
5.81441e-10
3.24976e-08
4.6166e-08
5.14555e-08
7.85408e-08
3.99735e-08
3.67046e-08
3.92818e-17
2.81194e-16
4.33849e-16
1.15065e-15
6.25335e-16
9.95668e-16
3.54418e-16
5.77499e-16
1.8532e-16
2.33026e-16
1.92536e-16
1.92011e-16
4.5295e-16
4.95301e-16
4.94594e-16
5.05109e-16
7.00383e-16
6.8726e-16
1.53308e-15
1.67127e-15
2.19989e-15
1.7087e-15
2.64339e-15
2.1626e-15
3.09634e-15
2.57053e-15
3.88325e-15
2.94086e-15
4.86797e-15
3.64987e-15
6.17248e-15
5.15522e-15
7.98637e-15
5.97085e-15
1.40015e-13
9.93911e-15
1.44832e-11
1.14591e-12
5.48609e-10
4.45148e-11
4.44374e-08
2.26259e-09
1.28189e-07
3.50715e-08
6.89631e-08
1.14006e-07
7.95359e-18
4.98807e-17
5.9761e-17
1.40502e-16
8.33347e-17
1.20535e-16
4.68927e-17
7.28574e-17
3.01613e-17
3.16826e-17
3.58943e-17
3.29638e-17
1.0618e-16
8.5245e-17
1.30457e-16
1.04624e-16
2.57006e-16
1.96536e-16
6.52895e-16
7.18241e-16
7.37136e-16
6.71566e-16
8.61849e-16
6.64746e-16
1.03362e-15
7.15204e-16
1.24434e-15
7.50518e-16
1.73876e-15
9.43799e-16
2.84263e-15
1.53148e-15
4.08244e-15
3.56866e-15
1.24764e-14
1.29706e-15
1.0521e-12
1.12987e-13
4.04628e-11
4.83842e-12
2.07099e-09
2.32317e-10
3.46605e-08
1.80018e-09
7.63104e-10
1.50938e-07
1.36897e-18
8.02838e-18
7.90614e-18
1.79869e-17
9.69759e-18
1.44439e-17
5.91139e-18
8.89923e-18
4.40418e-18
4.14966e-18
6.03649e-18
4.94194e-18
1.89014e-17
1.2157e-17
2.7008e-17
1.70964e-17
7.3163e-17
4.21249e-17
2.26191e-16
1.98317e-16
2.44178e-16
2.10338e-16
2.49727e-16
1.83414e-16
2.73985e-16
1.69668e-16
3.07361e-16
1.60253e-16
4.60597e-16
1.90953e-16
1.09222e-15
4.7449e-16
2.10406e-15
1.38611e-15
2.30684e-15
8.42305e-16
1.08207e-13
6.52444e-15
4.6945e-12
2.55937e-13
2.32639e-10
9.50233e-12
2.00118e-09
6.59473e-11
2.91559e-11
2.82154e-09
2.14785e-19
1.20721e-18
9.9367e-19
2.21552e-18
1.08439e-18
1.66441e-18
7.10608e-19
1.03567e-18
5.76993e-19
5.16863e-19
9.34414e-19
6.81523e-19
2.88063e-18
1.67428e-18
4.59258e-18
2.51159e-18
1.50779e-17
6.75678e-18
5.86201e-17
3.29324e-17
6.6328e-17
4.59039e-17
6.36961e-17
4.19961e-17
6.39289e-17
3.67657e-17
6.69397e-17
3.11774e-17
9.70798e-17
3.40633e-17
4.43844e-16
1.61791e-16
9.67417e-16
5.68698e-16
8.7041e-16
5.54049e-16
5.82669e-15
1.16757e-15
2.48394e-13
1.14102e-14
9.49777e-12
3.54388e-13
7.91468e-11
2.11206e-12
1.8734e-13
1.1214e-10
3.13253e-20
1.70033e-19
1.18377e-19
2.58024e-19
1.16622e-19
1.82199e-19
8.13364e-20
1.14259e-19
6.95466e-20
6.09956e-20
1.34476e-19
8.89853e-20
4.0776e-19
2.22637e-19
7.0025e-19
3.53857e-19
2.39259e-18
9.2245e-19
1.03952e-17
4.04092e-18
1.324e-17
7.1289e-18
1.42839e-17
7.63137e-18
1.38049e-17
7.06227e-18
1.35063e-17
5.6519e-18
1.7181e-17
5.55361e-18
1.61834e-16
4.38878e-17
4.36425e-16
2.27107e-16
4.72184e-16
2.36463e-16
4.55478e-15
2.69561e-15
1.85347e-14
3.11018e-15
3.6787e-13
7.76577e-15
2.52427e-12
5.02605e-14
-2.55454e-14
2.85061e-12
4.26863e-21
2.24723e-20
1.33719e-20
2.85191e-20
1.20186e-20
1.89482e-20
8.86515e-21
1.19701e-20
7.9765e-21
6.82752e-21
1.79247e-20
1.09628e-20
5.43661e-20
2.78441e-20
1.00758e-19
4.81577e-20
3.35434e-19
1.23126e-19
1.42989e-18
4.73052e-19
2.2588e-18
9.05855e-19
2.56125e-18
1.16247e-18
2.6249e-18
1.13136e-18
2.43711e-18
9.25136e-19
2.66377e-18
8.12987e-19
3.67854e-17
5.95268e-18
1.6804e-16
6.07657e-17
2.03225e-16
6.85895e-17
5.8628e-15
2.82861e-15
8.45959e-15
3.20214e-15
1.4369e-14
9.26096e-16
6.81215e-14
3.73735e-16
-1.30216e-15
4.85961e-14
5.4598e-22
2.79835e-21
1.43561e-21
3.00229e-21
1.18432e-21
1.87519e-21
9.20296e-22
1.19276e-21
8.69812e-22
7.26132e-22
2.22183e-21
1.26905e-21
6.81017e-21
3.2598e-21
1.39119e-20
6.29268e-21
4.57187e-20
1.66857e-20
1.80151e-19
5.73483e-20
3.18445e-19
1.10062e-19
3.89645e-19
1.53487e-19
4.23176e-19
1.54955e-19
3.74193e-19
1.3282e-19
3.8526e-19
1.04703e-19
3.99977e-18
3.70149e-19
3.94392e-17
6.72902e-18
6.19568e-17
1.16999e-17
3.19859e-15
9.12926e-16
3.64313e-15
1.08014e-15
1.70678e-15
4.04527e-16
1.97766e-15
4.58076e-17
2.03314e-17
8.25145e-16
6.58187e-23
3.29621e-22
1.43319e-22
3.01677e-22
1.11503e-22
1.76843e-22
9.10191e-23
1.13209e-22
9.0142e-23
7.34603e-23
2.56917e-22
1.38345e-22
8.00127e-22
3.59266e-22
1.83688e-21
7.80668e-22
6.15961e-21
2.22209e-21
2.21114e-20
7.00742e-21
4.07194e-20
1.32415e-20
5.30652e-20
1.86348e-20
5.7964e-20
1.90899e-20
5.21228e-20
1.6632e-20
4.99519e-20
1.23352e-20
2.50968e-19
2.01745e-20
4.11991e-18
2.94577e-19
1.0783e-17
1.04556e-18
4.80473e-16
3.69393e-17
5.81049e-16
5.75188e-17
2.40116e-16
3.07067e-17
1.09274e-16
9.11991e-18
7.82776e-18
1.17513e-16
7.50161e-24
3.68376e-23
1.37014e-23
2.89911e-23
1.00256e-23
1.59062e-23
8.58188e-24
1.02505e-23
8.878e-24
7.07899e-24
2.78321e-23
1.42575e-23
8.81734e-23
3.74681e-23
2.28182e-22
9.05801e-23
7.97332e-22
2.77545e-22
2.63947e-21
8.26849e-22
4.91207e-21
1.54072e-21
6.52176e-21
2.15482e-21
7.12777e-21
2.17264e-21
6.48001e-21
1.88787e-21
5.87811e-21
1.34227e-21
1.49744e-20
1.45972e-21
2.16191e-19
1.07063e-20
9.88943e-19
5.45795e-20
1.93219e-17
5.84158e-19
2.9342e-17
1.28642e-18
2.2101e-17
1.15376e-18
1.62716e-17
9.811e-19
9.39129e-19
2.36696e-17
8.10187e-25
3.90999e-24
1.15188e-24
2.66665e-24
8.60626e-25
1.36596e-24
7.72137e-25
8.86601e-25
8.31352e-25
6.5078e-25
2.83568e-24
1.39378e-24
9.12531e-24
3.70883e-24
2.62465e-23
9.75449e-24
9.58067e-23
3.16201e-23
2.99804e-22
9.13414e-23
5.58563e-22
1.68511e-22
7.38242e-22
2.35464e-22
8.03126e-22
2.30451e-22
7.27071e-22
1.98094e-22
6.10148e-22
1.34265e-22
1.00986e-21
1.21401e-22
1.00042e-20
4.96128e-22
4.96085e-20
2.05058e-21
6.04004e-19
1.98931e-20
1.18786e-18
3.9835e-20
1.42519e-18
4.83357e-20
1.84637e-18
6.88156e-20
6.40511e-20
2.64765e-18
8.28918e-26
3.91156e-25
9.36635e-26
2.34034e-25
7.06141e-26
1.11797e-25
6.63454e-26
7.32288e-26
7.40634e-26
5.71132e-26
2.72623e-25
1.29627e-25
8.8922e-25
3.49278e-25
2.78509e-24
9.80401e-25
1.05181e-23
3.29265e-24
3.17774e-23
9.34367e-24
5.9094e-23
1.70756e-23
7.68945e-23
2.3859e-23
8.3242e-23
2.26841e-23
7.42833e-23
1.91996e-23
5.88115e-23
1.2081e-23
6.98772e-23
9.52275e-24
4.81806e-22
2.58266e-23
2.07216e-21
8.00609e-23
2.15882e-20
6.20288e-22
4.73006e-20
1.39461e-21
6.73189e-20
1.84289e-21
9.89792e-20
2.15807e-21
2.3934e-21
1.42546e-19
7.92665e-27
3.5029e-26
7.35202e-27
1.92412e-26
5.50613e-27
8.4711e-27
5.44281e-27
5.7061e-27
6.27232e-27
4.75975e-27
2.48115e-26
1.15007e-26
8.18708e-26
3.13831e-26
2.74611e-25
9.29983e-26
1.06003e-24
3.19152e-25
3.12261e-24
8.90637e-25
5.769e-24
1.60693e-24
7.39667e-24
2.22373e-24
7.90614e-24
2.07339e-24
6.87593e-24
1.70482e-24
4.68201e-24
8.9983e-25
4.76064e-24
5.86409e-25
2.33053e-23
1.30226e-24
8.85338e-23
3.6365e-24
7.4386e-22
2.16414e-23
1.72176e-21
4.94132e-23
2.58149e-21
6.7131e-23
3.98086e-21
9.81148e-23
2.8869e-22
9.16263e-21
6.5018e-28
2.66038e-27
5.46161e-28
1.45616e-27
3.94133e-28
6.37892e-28
4.2054e-28
3.9052e-28
5.01176e-28
3.66095e-28
2.14697e-27
9.76373e-28
7.14935e-27
2.69985e-27
2.53952e-26
8.39391e-27
9.92856e-26
2.92336e-26
2.85645e-25
8.00157e-26
5.20863e-25
1.41915e-25
6.63046e-25
1.92394e-25
6.87097e-25
1.76555e-25
5.66217e-25
1.35164e-25
2.60084e-25
4.549e-26
2.43902e-25
2.32754e-26
1.04375e-24
6.2252e-26
3.93628e-24
1.6779e-25
2.60178e-23
8.22041e-25
6.18925e-23
1.79017e-24
1.08067e-22
3.14235e-24
3.12e-22
1.37075e-23
9.839e-23
1.85804e-21
4.56744e-29
2.02965e-27
3.89753e-29
1.10137e-27
2.38149e-29
4.71858e-28
2.66998e-29
1.90598e-28
3.86992e-29
2.41118e-29
1.78263e-28
7.94047e-29
5.94254e-28
2.23042e-28
2.21729e-27
7.24283e-28
8.72777e-27
2.54907e-27
2.44995e-26
6.83176e-27
4.3828e-26
1.18724e-26
5.50855e-26
1.56564e-26
5.52782e-26
1.40971e-26
3.79504e-26
9.28049e-27
9.8394e-27
3.05028e-26
1.09268e-26
1.7234e-26
3.29254e-26
4.01133e-26
1.7311e-25
9.87443e-27
9.42794e-25
3.20675e-26
2.32996e-24
6.80185e-26
6.55164e-24
2.65207e-25
5.77097e-23
3.49705e-24
3.6495e-23
5.90134e-22
-2.29482e-29
-6.33092e-28
1.04376e-31
1.40269e-30
-9.65236e-30
-8.36764e-29
1.18614e-30
9.27653e-30
2.87632e-30
1.1918e-29
1.43166e-29
5.67707e-30
4.71327e-29
1.77314e-29
1.83689e-28
6.00225e-29
7.24514e-28
2.12512e-28
1.98202e-27
5.57186e-28
3.46144e-27
9.46661e-28
4.27756e-27
1.20787e-27
4.1384e-27
1.06449e-27
4.36971e-27
6.12035e-28
-2.77738e-26
-3.51511e-26
-2.62211e-26
-2.90148e-26
-4.49088e-28
-4.31024e-28
5.13378e-27
4.29156e-27
3.51913e-26
2.61493e-27
9.45149e-26
2.87851e-27
6.8096e-25
3.55466e-26
1.27567e-23
8.03952e-25
8.97659e-24
1.61786e-22
-3.26947e-29
-9.15702e-28
-8.9567e-30
-1.26241e-28
-1.11224e-29
-1.01694e-28
-3.66711e-30
-2.56151e-29
2.48166e-31
4.78753e-31
9.43762e-31
6.25043e-31
3.66522e-30
1.36708e-30
1.45102e-29
4.80098e-30
5.70446e-29
1.70175e-29
1.51915e-28
4.36021e-29
2.57916e-28
7.22823e-29
3.12449e-28
8.88334e-29
2.90468e-28
7.64788e-29
2.86721e-28
4.14465e-29
-2.28912e-26
-3.07113e-26
-2.28532e-26
-2.68321e-26
-8.44155e-27
-8.60622e-27
-7.52778e-28
-6.5891e-28
1.17715e-27
6.85005e-28
4.29444e-27
1.22172e-28
8.34458e-26
4.47422e-27
2.15318e-24
1.12121e-25
1.24579e-24
2.96455e-23
-2.10228e-29
-5.9431e-28
-5.50994e-30
-8.17288e-29
-5.45012e-30
-5.29632e-29
-2.21787e-30
-1.64855e-29
-2.78532e-31
-1.65313e-30
1.11604e-31
2.34907e-31
2.7918e-31
9.28709e-32
1.09415e-30
3.71754e-31
4.27581e-30
1.31648e-30
1.10682e-29
3.28975e-30
1.81932e-29
5.31e-30
2.15618e-29
6.2594e-30
1.91967e-29
5.25388e-30
1.80217e-29
2.67862e-30
-1.0632e-26
-1.5264e-26
-1.09036e-26
-1.37135e-26
-4.98299e-27
-5.44817e-27
-1.1954e-27
-1.12354e-27
-3.90728e-29
-3.10628e-29
2.15292e-28
8.38023e-29
8.11208e-27
3.69848e-28
2.44645e-25
1.01711e-26
1.07784e-25
3.39121e-24
-1.03942e-29
-2.96302e-28
-2.44039e-30
-3.82422e-29
-2.07886e-30
-2.16731e-29
-9.25046e-31
-7.39346e-30
-1.66841e-31
-1.06519e-30
-2.63575e-33
-1.3865e-32
1.85117e-32
1.0605e-32
8.07709e-32
2.82792e-32
3.0615e-31
9.90639e-32
7.67984e-31
2.40584e-31
1.21676e-30
3.77203e-31
1.40889e-30
4.24718e-31
1.19663e-30
3.46762e-31
1.07777e-30
1.65839e-31
-3.74714e-27
-5.83171e-27
-3.83954e-27
-5.2418e-27
-1.86197e-27
-2.21322e-27
-5.37128e-28
-5.49772e-28
-8.70764e-29
-7.55236e-29
-1.00911e-31
-7.2431e-32
5.69032e-28
2.25479e-29
2.10914e-26
8.39661e-28
8.56705e-27
2.81561e-25
-4.38053e-30
-1.26586e-28
-9.22468e-31
-1.53597e-29
-6.87234e-31
-7.78024e-30
-3.22474e-31
-2.81054e-30
-6.7947e-32
-4.73684e-31
-5.41023e-33
-3.11282e-32
2.19102e-33
3.00379e-33
5.86019e-33
2.08908e-33
2.09288e-32
7.28736e-33
5.07597e-32
1.71518e-32
7.70925e-32
2.60516e-32
8.71563e-32
2.79004e-32
7.02818e-32
2.20969e-32
6.10086e-32
9.91579e-33
-1.08767e-27
-1.87111e-27
-1.09013e-27
-1.64868e-27
-5.2988e-28
-6.99526e-28
-1.6018e-28
-1.82632e-28
-3.15111e-29
-3.0547e-29
-3.34228e-30
-2.69134e-30
3.6981e-29
1.52351e-30
1.76336e-27
8.56347e-29
8.92581e-28
2.34232e-26
-1.63256e-30
-4.84009e-29
-3.1284e-31
-5.58893e-30
-2.04376e-31
-2.55433e-30
-9.91216e-32
-9.60117e-31
-2.26724e-32
-1.76168e-31
-2.53956e-33
-1.63298e-32
4.07793e-35
2.8062e-35
3.85947e-34
1.22561e-34