/*--------------------------------*- C++ -*----------------------------------*\
| =========                 |                                                 |
| \\      /  F ield         | OpenFOAM: The Open Source CFD Toolbox           |
|  \\    /   O peration     | Version:  5.x                                   |
|   \\  /    A nd           | Web:      www.OpenFOAM.org                      |
|    \\/     M anipulation  |                                                 |
\*---------------------------------------------------------------------------*/
FoamFile
{
    version     2.0;
    format      ascii;
    class       volScalarField;
    location    "0.8";
    object      p;
}
// * * * * * * * * * * * * * * * * * * * * * * * * * * * * * * * * * * * * * //

dimensions      [1 -1 -2 0 0 0 0];

internalField   nonuniform List<scalar> 
2268
(
616.22
616.274
617.46
620.152
627.148
641.588
662.593
685.663
708.089
729.802
750.185
768.495
783.843
795.619
803.837
808.364
806.392
801.218
796.954
796.741
809.063
826.565
832.348
556.757
556.294
557.122
559.279
565.466
580.333
602.639
626.466
649.26
671.247
692.027
710.501
725.909
737.645
745.809
751.024
752.723
747.261
735.87
734.075
745.859
761.869
770.037
494.327
493.545
494.615
496.675
502.384
517.863
541.598
566.883
590.48
612.941
634.078
652.824
668.441
680.315
688.537
693.907
696.604
690.904
678.442
676.432
686.423
698.911
707.203
429.523
428.67
430.286
432.279
437.309
453.263
479.594
507.219
531.967
555.068
576.777
595.982
611.891
624.01
632.014
636.912
638.748
633.806
623.889
621.12
629.411
637.519
644.596
363.363
362.403
364.532
366.657
371.675
389.027
418.253
448.172
473.901
497.672
520.1
539.873
556.075
568.23
576.084
580.329
581.142
577.012
569.659
566.068
571.605
576.467
582.365
296.622
295.207
297.782
300.715
307.138
326.622
358.421
389.736
416.172
440.742
464.034
484.436
500.986
513.184
520.725
524.076
523.643
519.232
512.887
508.61
512.118
515.307
520.93
229.772
227.694
230.723
235.559
244.937
266.754
299.358
330.754
357.963
383.974
408.673
429.835
446.708
458.925
465.951
468.113
466.151
460.791
454.345
449.706
451.768
454.285
461.047
162.482
160.747
163.634
171.622
185.161
209.1
241.875
271.346
299.037
327.08
353.856
375.864
392.942
405.05
411.353
412.114
408.436
401.747
394.631
389.657
390.847
393.515
402.311
948.24
867.496
827.322
884.47
969.815
887.747
884.099
960.541
923.159
846.26
995.983
1218.34
960.471
719.086
635.752
679.649
681.378
611.283
622.066
894.859
786.973
738.186
800.593
891.134
805.093
820.196
909.146
815.657
702.442
838.689
1080.15
843.795
633.631
563.019
615.534
655.411
544.562
563.145
823.473
693.204
648.847
715.208
804.029
707.54
729.898
812.274
634.455
575.129
701.199
892.145
684.033
518.84
471.062
521.731
538.985
440.492
548.889
737.423
603.525
566.775
641.754
724.561
625.591
636.294
664.629
506.404
519.586
624.217
699.952
494.841
386.829
367.696
408.852
425.001
423.617
547.391
653.824
528.602
507.125
592.114
675.438
581.024
557.327
506.721
452.175
482.621
564.37
525.601
300.408
252.798
254.144
290.161
338.902
435.571
611.252
584.604
467.352
464.391
563.111
666.169
580.008
505.992
415.371
416.798
450.907
493.203
337.385
228.095
219.529
218.838
228.642
263.835
407.915
611.52
527.627
429.417
444.799
547.338
671.052
591.79
449.291
378.398
394.763
421.362
399.279
233.134
220.835
216.022
216.4
220.951
232.946
354.927
622.048
474.883
405.134
427.85
527.86
657.463
581.366
377.086
346.221
373.821
387.839
290.724
221.853
218.545
213.597
214.403
219.679
229.754
370.605
618.38
74.5309
71.3988
75.983
89.6819
107.402
124.653
145.688
172.595
204.371
237.947
269.457
292.382
310.215
322.716
327.207
324.893
318.094
309.057
300.501
295.007
294.931
297.747
305.885
20.1185
12.2027
11.882
15.1837
22.416
32.2002
45.064
65.451
94.3039
128.577
171.268
203.84
222.626
231.333
229.812
220.936
208.172
193.405
179.525
170.951
168.081
168.929
168.953
7.10266
3.67172
1.60119
0.668933
0.594061
1.53345
4.40473
14.9898
24.6663
42.0242
72.411
91.7921
124.151
161.321
164.368
153.845
139.244
122.923
109.435
102.78
101.541
103.431
104.492
3.82448
1.9054
0.776814
0.0318108
-0.451492
-0.681182
-0.466005
0.618566
6.50495
8.67562
50.3267
71.6621
78.0874
101.106
123.312
127.893
119.995
108.075
99.8171
95.4816
93.8781
93.8363
94.1049
1.28285
0.337554
-0.240048
-0.746723
-1.01805
-1.025
-1.05309
-1.87709
-3.45413
-5.19357
3.26508
28.2572
54.0183
68.3153
94.8896
109.612
109.28
102.149
97.6962
94.3897
93.1832
92.9925
93.2546
-0.101742
-0.705272
-1.04162
-1.39142
-1.57926
-1.66531
-1.86879
-2.36313
-3.09712
-3.71787
-2.58617
3.6016
14.0815
26.9969
48.1939
67.5656
79.9074
87.7661
94.9779
94.0351
92.8805
92.7479
92.9768
-0.777781
-1.30376
-1.52836
-1.79225
-1.92311
-2.02316
-2.22869
-2.69209
-3.3902
-4.11746
-4.34826
-3.86486
-2.60466
0.745738
10.5018
21.7427
39.2701
56.3056
79.0545
90.5197
93.0878
92.634
92.7457
-1.18707
-1.65237
-1.83605
-2.05021
-2.16109
-2.27226
-2.43961
-2.76799
-3.21362
-3.58242
-3.61882
-3.53641
-3.20594
-2.95421
-2.78706
-1.32142
5.95783
16.512
38.499
65.7466
89.4914
92.395
92.4982
-1.48017
-1.89952
-2.09614
-2.27007
-2.36109
-2.45625
-2.59387
-2.80988
-3.07853
-3.32221
-3.42636
-3.34702
-3.14454
-3.03424
-2.8807
-2.65823
-2.91352
-1.50148
5.07604
28.2899
60.4968
79.0682
90.9373
-1.69726
-2.06905
-2.32073
-2.48056
-2.53642
-2.58947
-2.68573
-2.83489
-3.00908
-3.16833
-3.25324
-3.21212
-3.09284
-2.97865
-2.87085
-2.75863
-2.6493
-2.732
-3.19701
4.06886
24.0277
59.1555
81.0313
-1.89177
-2.14431
-2.42812
-2.60019
-2.64397
-2.66975
-2.73812
-2.84898
-2.97109
-3.076
-3.13429
-3.12535
-3.06216
-2.97956
-2.89401
-2.80762
-2.70949
-2.61796
-2.64538
-3.12744
-0.846928
11.5824
23.9327
-2.10618
-2.19237
-2.39794
-2.57744
-2.65496
-2.6995
-2.7692
-2.86483
-2.96116
-3.03981
-3.08682
-3.09321
-3.06256
-3.00933
-2.94538
-2.88371
-2.82065
-2.7606
-2.71363
-2.6985
-2.78802
-3.62363
-0.0697334
-2.31099
-2.27386
-2.34854
-2.5045
-2.62407
-2.70943
-2.79639
-2.8888
-2.97381
-3.04188
-3.0868
-3.1043
-3.09549
-3.06713
-3.02788
-2.9889
-2.9578
-2.9305
-2.89389
-2.88648
-3.07487
-3.48239
-3.90097
-2.45467
-2.37535
-2.38331
-2.50323
-2.63236
-2.7399
-2.83702
-2.92652
-3.0046
-3.06774
-3.11316
-3.13923
-3.14698
-3.14056
-3.12588
-3.11023
-3.09994
-3.1062
-3.12848
-3.16564
-3.41405
-3.85733
-4.04646
-2.55699
-2.49113
-2.50111
-2.59033
-2.70122
-2.80445
-2.89748
-2.98022
-3.05177
-3.11111
-3.15707
-3.18934
-3.20932
-3.22057
-3.22801
-3.23782
-3.25675
-3.29468
-3.38768
-3.49663
-3.71966
-4.20671
-4.60282
-2.66281
-2.63877
-2.65551
-2.72023
-2.80639
-2.89307
-2.97426
-3.04786
-3.11277
-3.16844
-3.2145
-3.2512
-3.28008
-3.30444
-3.32923
-3.36094
-3.40926
-3.48163
-3.61238
-3.80536
-4.06596
-4.49484
-4.93432
-2.79311
-2.79512
-2.81076
-2.85886
-2.9242
-2.9936
-3.06185
-3.1259
-3.18416
-3.23605
-3.28144
-3.3208
-3.35558
-3.38872
-3.42487
-3.47031
-3.5345
-3.62742
-3.76661
-3.97192
-4.22129
-4.58428
-4.95655
-2.93272
-2.94048
-2.95603
-2.9938
-3.04389
-3.09931
-3.15608
-3.21118
-3.26294
-3.3107
-3.35439
-3.39445
-3.43215
-3.46991
-3.51159
-3.56255
-3.62965
-3.72299
-3.85364
-4.03867
-4.27126
-4.52027
-4.77607
-3.06915
-3.07604
-3.09219
-3.12282
-3.16222
-3.207
-3.2542
-3.30131
-3.34686
-3.39017
-3.43113
-3.47008
-3.50802
-3.54679
-3.58927
-3.63963
-3.70253
-3.78529
-3.89713
-4.05782
-4.27239
-4.48317
-4.60658
-3.2009
-3.20613
-3.22157
-3.24673
-3.27847
-3.31507
-3.3544
-3.39457
-3.43432
-3.473
-3.51044
-3.54688
-3.58297
-3.62002
-3.65999
-3.70579
-3.76065
-3.82873
-3.91549
-4.03474
-4.20544
-4.38698
-4.52067
-3.32815
-3.33214
-3.34588
-3.36669
-3.39264
-3.42279
-3.45564
-3.48978
-3.52417
-3.55822
-3.59169
-3.62465
-3.65751
-3.69107
-3.72654
-3.76562
-3.81025
-3.86216
-3.92302
-3.99549
-4.09467
-4.20885
-4.29191
-3.45132
-3.45446
-3.46628
-3.48354
-3.50493
-3.52987
-3.55734
-3.58625
-3.61575
-3.6453
-3.6746
-3.70361
-3.73249
-3.76165
-3.7917
-3.82342
-3.8576
-3.89449
-3.93374
-3.97244
-4.01301
-4.05373
-4.07411
-3.57114
-3.57364
-3.58364
-3.59797
-3.61564
-3.63632
-3.65926
-3.68362
-3.70869
-3.73399
-3.75919
-3.78412
-3.80879
-3.8333
-3.85786
-3.88266
-3.90779
-3.93283
-3.95682
-3.97656
-3.98938
-3.99275
-3.9825
-3.68829
-3.69027
-3.69864
-3.71052
-3.72513
-3.74226
-3.76135
-3.78174
-3.80285
-3.82423
-3.84554
-3.86654
-3.88711
-3.90718
-3.92668
-3.94552
-3.96346
-3.9799
-3.99387
-4.00338
-4.00611
-3.99989
-3.98393
-3.80332
-3.80487
-3.81182
-3.82164
-3.83369
-3.84783
-3.86365
-3.8806
-3.8982
-3.91604
-3.93377
-3.95115
-3.96794
-3.98397
-3.99906
-4.01295
-4.02528
-4.03548
-4.04273
-4.04576
-4.04309
-4.03297
-4.01437
-3.9167
-3.91788
-3.92363
-3.93172
-3.9416
-3.95323
-3.96625
-3.98023
-3.99475
-4.00944
-4.02398
-4.03809
-4.05151
-4.06401
-4.07535
-4.08521
-4.09321
-4.09883
-4.10141
-4.10005
-4.09383
-4.08167
-4.06309
-4.02881
-4.02967
-4.03441
-4.04104
-4.0491
-4.05859
-4.06924
-4.08065
-4.0925
-4.10444
-4.11617
-4.12742
-4.13792
-4.14741
-4.15563
-4.16228
-4.16699
-4.16931
-4.16875
-4.16469
-4.15657
-4.14386
-4.12642
-4.13995
-4.14055
-4.14444
-4.14984
-4.15638
-4.16406
-4.17268
-4.18192
-4.19146
-4.20102
-4.21033
-4.21912
-4.22712
-4.23411
-4.2398
-4.24393
-4.24618
-4.24621
-4.24363
-4.23805
-4.22915
-4.21663
-4.20049
-4.25039
-4.25077
-4.25395
-4.25832
-4.26357
-4.26974
-4.27665
-4.28402
-4.2916
-4.29914
-4.30638
-4.31308
-4.31901
-4.32393
-4.32762
-4.32981
-4.33027
-4.32871
-4.32487
-4.3185
-4.3094
-4.29743
-4.28263
-4.36032
-4.36054
-4.36311
-4.36663
-4.3708
-4.3757
-4.38117
-4.38697
-4.3929
-4.39872
-4.40422
-4.40919
-4.41341
-4.41667
-4.41877
-4.41951
-4.41866
-4.41605
-4.41146
-4.40475
-4.39581
-4.38458
-4.37115
-4.46989
-4.47
-4.47208
-4.47487
-4.47815
-4.48199
-4.48625
-4.49075
-4.49529
-4.49968
-4.50374
-4.50728
-4.51012
-4.51206
-4.51295
-4.51259
-4.51085
-4.50755
-4.50259
-4.49584
-4.48728
-4.47689
-4.46476
-4.57925
-4.57929
-4.58095
-4.58315
-4.58568
-4.58864
-4.59191
-4.59531
-4.59871
-4.60193
-4.60482
-4.6072
-4.60893
-4.60985
-4.60981
-4.60868
-4.60633
-4.60265
-4.59756
-4.59099
-4.58294
-4.57342
-4.56251
-4.68849
-4.68851
-4.68979
-4.69151
-4.69343
-4.69566
-4.69811
-4.70063
-4.70309
-4.70536
-4.7073
-4.70877
-4.70964
-4.70978
-4.70907
-4.70741
-4.70469
-4.70084
-4.6958
-4.68955
-4.68208
-4.67342
-4.66367
-4.79769
-4.7977
-4.79868
-4.8
-4.80142
-4.80307
-4.80485
-4.80665
-4.80836
-4.80987
-4.81106
-4.81182
-4.81203
-4.81161
-4.81043
-4.80843
-4.80553
-4.80168
-4.79683
-4.79097
-4.78412
-4.77632
-4.76765
-4.90692
-4.90691
-4.90765
-4.90866
-4.90967
-4.91085
-4.9121
-4.91332
-4.91443
-4.91535
-4.91596
-4.91618
-4.91593
-4.91511
-4.91364
-4.91147
-4.90853
-4.90479
-4.90022
-4.89482
-4.88862
-4.88164
-4.87397
-5.01622
-5.01617
-5.01673
-5.01749
-5.01818
-5.01899
-5.01981
-5.02059
-5.02124
-5.0217
-5.02189
-5.02173
-5.02115
-5.02009
-5.01847
-5.01625
-5.01339
-5.00986
-5.00565
-5.00076
-4.99522
-4.98907
-4.98236
-5.12563
-5.12551
-5.12595
-5.12651
-5.12695
-5.12746
-5.12797
-5.1284
-5.12872
-5.12885
-5.12874
-5.12833
-5.12756
-5.12637
-5.12473
-5.12258
-5.11991
-5.11668
-5.1129
-5.10857
-5.10373
-5.09839
-5.09264
-5.23515
-5.23494
-5.2353
-5.23571
-5.23595
-5.23626
-5.23652
-5.23672
-5.2368
-5.23671
-5.23642
-5.23587
-5.23502
-5.23384
-5.23228
-5.23031
-5.22791
-5.22508
-5.22181
-5.21811
-5.214
-5.20953
-5.20475
-5.34478
-5.34447
-5.34478
-5.34507
-5.34518
-5.34535
-5.34544
-5.34548
-5.34541
-5.3452
-5.34483
-5.34425
-5.34344
-5.34236
-5.34098
-5.33929
-5.33728
-5.33493
-5.33225
-5.32924
-5.32594
-5.32238
-5.31861
-5.45452
-5.45412
-5.45441
-5.4546
-5.45462
-5.45469
-5.45469
-5.45464
-5.4545
-5.45426
-5.4539
-5.45339
-5.4527
-5.45182
-5.45073
-5.44942
-5.44788
-5.4461
-5.44409
-5.44186
-5.43943
-5.43682
-5.43411
-5.56426
-5.56384
-5.56414
-5.56423
-5.56421
-5.56423
-5.56418
-5.56411
-5.56398
-5.56378
-5.56351
-5.56315
-5.56268
-5.56209
-5.56138
-5.56053
-5.55954
-5.55842
-5.55715
-5.55576
-5.55425
-5.55265
-5.551
-5.67447
-5.67399
-5.67411
-5.67413
-5.67411
-5.67412
-5.67407
-5.67402
-5.67395
-5.67385
-5.67372
-5.67355
-5.67335
-5.67311
-5.67283
-5.6725
-5.67213
-5.67172
-5.67126
-5.67076
-5.67023
-5.66968
-5.66913
315.04
320.702
330.804
345.557
162.494
159.837
164.722
179.761
100.216
98.7557
97.8139
99.8146
94.2565
94.1539
93.7728
93.3035
93.4819
93.5396
93.5619
93.548
93.2005
93.2829
93.3106
93.3202
92.924
93.0356
93.1471
93.2933
92.5383
92.5345
92.5705
91.5856
90.4627
88.6063
86.0889
83.0109
72.3748
67.0695
62.5836
65.76
27.6271
26.945
29.1493
27.5825
3.10986
0.780217
-0.731129
1.73623
-3.62321
-3.31231
-3.28414
-3.36138
-3.79605
-3.71611
-3.71589
-3.64778
-4.6662
-4.57075
-4.3466
-4.0259
-5.08339
-5.0811
-4.91385
-4.57958
-4.99077
-4.94015
-4.84664
-4.65319
-4.77197
-4.74194
-4.67985
-4.54937
-4.67657
-4.69205
-4.6174
-4.46158
-4.54897
-4.51529
-4.43799
-4.31758
-4.29185
-4.26025
-4.20077
-4.11827
-4.05043
-4.02129
-3.98661
-3.93817
-3.95505
-3.93098
-3.90472
-3.8731
-3.96055
-3.9408
-3.91648
-3.89113
-3.99188
-3.97438
-3.95546
-3.93576
-4.04352
-4.0292
-4.01393
-3.99791
-4.10936
-4.09713
-4.08426
-4.07081
-4.18543
-4.17483
-4.16378
-4.15232
-4.26935
-4.26013
-4.25058
-4.24067
-4.35943
-4.35138
-4.34307
-4.33445
-4.45441
-4.44736
-4.44009
-4.43258
-4.55338
-4.54719
-4.54083
-4.53428
-4.65562
-4.65021
-4.64464
-4.63893
-4.76058
-4.75584
-4.75098
-4.74599
-4.86779
-4.86367
-4.85944
-4.85511
-4.97701
-4.97345
-4.96982
-4.9661
-5.0881
-5.08509
-5.08204
-5.07893
-5.20102
-5.19858
-5.1961
-5.1936
-5.31572
-5.31384
-5.31194
-5.31004
-5.43206
-5.43073
-5.42942
-5.42814
-5.54977
-5.54898
-5.54821
-5.54748
-5.66872
-5.66848
-5.66824
-5.66803
386.283
361.097
365.517
459.183
579.97
494.053
312.606
303.691
321.413
321.811
230.501
221.724
216.618
210.141
207.931
214.7
238.228
469.63
579.144
217.207
244.426
258.779
298.178
379.101
311.103
246.875
255.302
261.169
264.539
232.422
219.952
210.334
209.234
219.266
235.817
270.698
341.533
508.112
118.166
157.314
183.352
197.816
239.887
206.658
188.267
203.774
212.441
223.55
194.632
191.843
186.795
214.773
263.533
306.181
324.115
257.268
372.786
93.9968
104.265
127.679
140.988
161.603
149.988
142.952
149.414
159.176
153.978
152.885
154.032
152.611
201.724
270.915
332.556
368.518
355.181
334.163
93.5586
95.1815
99.8222
96.616
101.937
105.393
111.556
105.972
113.105
125.285
150.588
136.365
110.243
131.379
201.397
292.885
364.638
399.168
319.917
93.1841
92.1503
90.535
75.731
83.7014
99.1386
101.057
89.1227
91.2341
99.9146
104.426
71.4951
17.809
29.8293
54.9075
137.288
290.35
390.5
319.281
93.3586
92.7705
92.016
84.1858
98.051
117.731
106.106
85.0779
81.9679
24.9564
13.1794
8.66249
8.42747
3.58324
1.74783
14.9874
62.7498
216.85
372.037
88.6475
78.5459
68.6418
94.8811
120.862
138.112
115.777
69.1912
20.4286
8.63513
6.71996
4.89731
1.0814
-2.36208
-3.38221
-0.341952
14.3699
82.2036
262.729
84.2148
86.0354
105.949
130.638
152.902
154.318
116.733
63.9688
6.54516
6.49016
5.96254
4.21436
-0.653244
-3.96059
-4.40729
-3.06736
-0.169766
18.3909
145.093
74.8463
85.3316
107.011
128.921
134.234
129.454
94.6683
41.9322
13.2361
0.430041
5.04571
2.54963
-0.73998
-2.90904
-3.21827
-2.47435
-1.37085
0.273287
49.6485
25.8027
34.9139
49.0825
64.7881
77.9113
76.2431
56.9628
21.2823
8.60798
8.36925
-0.758068
0.821194
-0.599115
-1.34198
-1.49005
-1.31874
-0.650488
-1.89588
3.27038
5.6543
7.93247
6.61646
7.63132
11.5221
14.9959
12.8909
5.52644
0.339379
-0.884671
-5.34649
-1.79239
-0.535111
-0.340593
-0.579744
-0.694292
-0.372309
-1.10577
-0.447942
-3.3148
-3.18889
-3.0975
-3.18682
-3.40169
-3.16923
-1.99478
-1.8727
-2.28867
-3.66435
-5.03013
-2.16527
-0.429172
-0.278797
-0.497892
-0.59954
-0.386279
-0.732026
-0.612324
-3.41189
-3.155
-3.0447
-3.05887
-3.09421
-3.11071
-2.82961
-2.60165
-2.81154
-3.08854
-2.8887
-1.88061
-0.84436
-0.870226
-0.879543
-0.887474
-0.745671
-0.875602
-0.78772
-3.4911
-3.00091
-2.78425
-2.79113
-2.92323
-3.06554
-3.2288
-3.30229
-3.23796
-2.98321
-2.41674
-1.73747
-1.32154
-1.32346
-1.34552
-1.44922
-1.31495
-1.10037
-0.957173
-3.79237
-2.91463
-2.5505
-2.45507
-2.62703
-3.06409
-3.55076
-3.74251
-3.53123
-3.06543
-2.49604
-2.00295
-1.73929
-1.72493
-1.7753
-1.99846
-2.07334
-1.77246
-1.22492
-4.01144
-3.00419
-2.65158
-2.51251
-2.61794
-3.03989
-3.57181
-3.77704
-3.55294
-3.10059
-2.62792
-2.27463
-2.08811
-2.06276
-2.13342
-2.41016
-2.69722
-2.78498
-2.11389
-4.05368
-3.26189
-2.88992
-2.74026
-2.79646
-3.05156
-3.36113
-3.52714
-3.39544
-3.08118
-2.75171
-2.50538
-2.36721
-2.3375
-2.40057
-2.63455
-3.01882
-3.05813
-2.29364
-4.07646
-3.4918
-3.14309
-2.98187
-2.97815
-3.10225
-3.25935
-3.33765
-3.2642
-3.07928
-2.8689
-2.69675
-2.58788
-2.55149
-2.58326
-2.73329
-2.96863
-2.88889
-2.80508
-4.06646
-3.64144
-3.3325
-3.17923
-3.15278
-3.20266
-3.26728
-3.29067
-3.24013
-3.12501
-2.98367
-2.85598
-2.76383
-2.71837
-2.71086
-2.7655
-2.84397
-2.78838
-2.71276
-3.94913
-3.6782
-3.45192
-3.33031
-3.29385
-3.30128
-3.3165
-3.31101
-3.2671
-3.18632
-3.08635
-2.98956
-2.91008
-2.85738
-2.81905
-2.7984
-2.78194
-2.72599
-2.65964
-3.84127
-3.6822
-3.54115
-3.45359
-3.4129
-3.39648
-3.38429
-3.36155
-3.31949
-3.25814
-3.18482
-3.11053
-3.0417
-2.98483
-2.92715
-2.86023
-2.77577
-2.68468
-2.61807
-3.81422
-3.72086
-3.63009
-3.56167
-3.51789
-3.48871
-3.46257
-3.43108
-3.39005
-3.33998
-3.28405
-3.22703
-3.16877
-3.11191
-3.04479
-2.95043
-2.82323
-2.70101
-2.63175
-3.84728
-3.78182
-3.71547
-3.65867
-3.61508
-3.58012
-3.54698
-3.511
-3.47096
-3.42878
-3.38622
-3.34459
-3.29799
-3.245
-3.17613
-3.0673
-2.91576
-2.77894
-2.71402
-3.90184
-3.85161
-3.79967
-3.7515
-3.70986
-3.67274
-3.63638
-3.59848
-3.56002
-3.52449
-3.49331
-3.46588
-3.43115
-3.38444
-3.31821
-3.20194
-3.04657
-2.91102
-2.85634
-3.9702
-3.92926
-3.88639
-3.84451
-3.8054
-3.7682
-3.73084
-3.69261
-3.65634
-3.62667
-3.60477
-3.58944
-3.56522
-3.52666
-3.46693
-3.34801
-3.19518
-3.08272
-3.03795
-4.04761
-4.0132
-3.97678
-3.94
-3.90389
-3.86807
-3.83132
-3.79412
-3.76048
-3.73504
-3.71875
-3.71091
-3.69366
-3.66427
-3.61359
-3.49508
-3.35663
-3.27412
-3.23748
-4.13257
-4.10313
-4.07173
-4.03936
-4.00665
-3.97336
-3.93883
-3.90415
-3.87321
-3.84953
-3.83382
-3.82624
-3.80993
-3.78704
-3.74832
-3.62901
-3.52714
-3.47032
-3.43893
-4.22362
-4.1982
-4.17104
-4.14278
-4.11387
-4.08415
-4.05337
-4.0226
-3.99431
-3.97045
-3.95153
-3.9386
-3.91949
-3.89616
-3.85107
-3.77379
-3.70514
-3.66064
-3.63291
-4.31963
-4.29762
-4.27416
-4.24977
-4.22479
-4.19918
-4.17298
-4.14681
-4.12136
-4.09731
-4.07548
-4.05675
-4.03474
-4.00956
-3.97023
-3.92186
-3.87658
-3.84107
-3.81579
-4.41969
-4.4006
-4.38036
-4.35943
-4.33806
-4.31627
-4.29429
-4.2723
-4.24994
-4.2273
-4.20543
-4.185
-4.16226
-4.14207
-4.10861
-4.07559
-4.03905
-4.01242
-3.98727
-4.52305
-4.50647
-4.48898
-4.47093
-4.45249
-4.4337
-4.41478
-4.39586
-4.37651
-4.35676
-4.33737
-4.31883
-4.29929
-4.27998
-4.25404
-4.22741
-4.19662
-4.17954
-4.14828
-4.62913
-4.6147
-4.59954
-4.58387
-4.56777
-4.55125
-4.5345
-4.51781
-4.50112
-4.48465
-4.46871
-4.45337
-4.43725
-4.42032
-4.39968
-4.37871
-4.35508
-4.34584
-4.30571
-4.73746
-4.72491
-4.71177
-4.69817
-4.68416
-4.6697
-4.65501
-4.64048
-4.62636
-4.61289
-4.6003
-4.58841
-4.57585
-4.56265
-4.54704
-4.53197
-4.5173
-4.51074
-4.48629
-4.84771
-4.83687
-4.82557
-4.81395
-4.80203
-4.7898
-4.77753
-4.76559
-4.75419
-4.74354
-4.7339
-4.72511
-4.71583
-4.70641
-4.6953
-4.68523
-4.67834
-4.674
-4.68294
-4.95977
-4.95057
-4.94109
-4.93146
-4.92175
-4.91197
-4.90239
-4.8933
-4.88473
-4.87682
-4.8698
-4.86355
-4.85699
-4.85057
-4.84296
-4.83656
-4.83347
-4.83053
-4.84785
-5.07366
-5.06611
-5.0585
-5.05095
-5.04353
-5.03627
-5.0294
-5.02306
-5.01716
-5.0118
-5.00717
-5.00313
-4.99891
-4.99486
-4.98999
-4.98623
-4.98439
-4.98216
-4.989
-5.18941
-5.18355
-5.17783
-5.17238
-5.16725
-5.16243
-5.15809
-5.15423
-5.15079
-5.14783
-5.14547
-5.1435
-5.14142
-5.13939
-5.13678
-5.13504
-5.13401
-5.13314
-5.13631
-5.30692
-5.30275
-5.29891
-5.29549
-5.29253
-5.29001
-5.28799
-5.28645
-5.28535
-5.28471
-5.28452
-5.28452
-5.28441
-5.28415
-5.28346
-5.28327
-5.28304
-5.28324
-5.28469
-5.42602
-5.42345
-5.4214
-5.41993
-5.41903
-5.41867
-5.41886
-5.41956
-5.42074
-5.42231
-5.42415
-5.426
-5.42765
-5.429
-5.42995
-5.43099
-5.43164
-5.43256
-5.43333
-5.54634
-5.5453
-5.54499
-5.54541
-5.54652
-5.54829
-5.55071
-5.55368
-5.5571
-5.5608
-5.56459
-5.56822
-5.57152
-5.57441
-5.57687
-5.57907
-5.5807
-5.5822
-5.58283
-5.66779
-5.6682
-5.6696
-5.67193
-5.67513
-5.67919
-5.68398
-5.68939
-5.69521
-5.70119
-5.70707
-5.71257
-5.71761
-5.72211
-5.7261
-5.7297
-5.73241
-5.73478
-5.73529
)
;

boundaryField
{
    leftWall
    {
        type            calculated;
        value           nonuniform List<scalar> 
50
(
616.22
556.757
494.327
429.523
363.363
296.622
229.772
162.482
74.5309
20.1185
7.10266
3.82448
1.28285
-0.101742
-0.777781
-1.18707
-1.48017
-1.69726
-1.89177
-2.10618
-2.31099
-2.45467
-2.55699
-2.66281
-2.79311
-2.93272
-3.06915
-3.2009
-3.32815
-3.45132
-3.57114
-3.68829
-3.80332
-3.9167
-4.02881
-4.13995
-4.25039
-4.36032
-4.46989
-4.57925
-4.68849
-4.79769
-4.90692
-5.01622
-5.12563
-5.23515
-5.34478
-5.45452
-5.56426
-5.67447
)
;
    }
    rightWall
    {
        type            calculated;
        value           nonuniform List<scalar> 
50
(
622.066
563.145
548.889
547.391
611.252
611.52
622.048
618.38
579.144
508.112
372.786
334.163
319.917
319.281
372.037
262.729
145.093
49.6485
3.27038
-0.447942
-0.612324
-0.78772
-0.957173
-1.22492
-2.11389
-2.29364
-2.80508
-2.71276
-2.65964
-2.61807
-2.63175
-2.71402
-2.85634
-3.03795
-3.23748
-3.43893
-3.63291
-3.81579
-3.98727
-4.14828
-4.30571
-4.48629
-4.68294
-4.84785
-4.989
-5.13631
-5.28469
-5.43333
-5.58283
-5.73529
)
;
    }
    lowerWall
    {
        type            calculated;
        value           nonuniform List<scalar> 
62
(
645.65
645.703
646.89
649.582
656.578
671.018
692.022
715.092
737.518
759.231
779.614
797.925
813.272
825.048
833.266
837.793
834.709
827.131
826.383
826.17
838.484
855.975
861.763
832.348
770.037
707.203
644.596
582.365
520.93
461.047
402.311
377.638
383.299
393.401
408.154
948.24
894.859
823.473
737.423
653.824
584.604
527.627
474.883
976.26
896.925
856.751
913.899
999.207
917.012
913.44
983.1
951.021
874.304
1019.29
1241.07
984.11
742.912
662.482
709.078
710.807
640.486
649.206
)
;
    }
    atmosphere
    {
        type            calculated;
        value           nonuniform List<scalar> 
46
(
-5.72904
-5.72904
-5.72904
-5.72904
-5.72904
-5.72904
-5.72904
-5.72904
-5.72904
-5.72904
-5.72904
-5.72904
-5.72904
-5.72904
-5.72904
-5.72904
-5.72904
-5.72904
-5.72904
-5.72904
-5.72904
-5.72904
-5.72904
-5.72904
-5.72904
-5.72904
-5.72904
-5.72915
-5.73023
-5.73245
-5.73579
-5.74008
-5.74537
-5.75145
-5.75821
-5.76542
-5.77274
-5.77986
-5.78644
-5.79247
-5.79786
-5.80273
-5.80731
-5.81058
-5.81393
-5.81393
)
;
    }
    defaultFaces
    {
        type            empty;
    }
}


// ************************************************************************* //
