/*--------------------------------*- C++ -*----------------------------------*\
| =========                 |                                                 |
| \\      /  F ield         | OpenFOAM: The Open Source CFD Toolbox           |
|  \\    /   O peration     | Version:  5.x                                   |
|   \\  /    A nd           | Web:      www.OpenFOAM.org                      |
|    \\/     M anipulation  |                                                 |
\*---------------------------------------------------------------------------*/
FoamFile
{
    version     2.0;
    format      ascii;
    class       volScalarField;
    location    "0.8";
    object      p_rgh;
}
// * * * * * * * * * * * * * * * * * * * * * * * * * * * * * * * * * * * * * //

dimensions      [1 -1 -2 0 0 0 0];

internalField   nonuniform List<scalar> 
2268
(
645.65
645.703
646.89
649.582
656.578
671.018
692.022
715.092
737.518
759.231
779.614
797.925
813.272
825.048
833.266
837.793
834.709
827.131
826.383
826.17
838.484
855.975
861.763
645.045
644.582
645.41
647.567
653.755
668.621
690.927
714.754
737.548
759.535
780.315
798.79
814.197
825.933
834.097
839.185
835.437
827.137
823.377
821.659
831.72
848.799
858.325
641.474
640.692
641.762
643.822
649.531
665.01
688.744
714.03
737.627
760.088
781.225
799.971
815.588
827.462
835.684
841.016
842.177
833.201
819.408
817.393
827.403
843.191
854.35
635.528
634.675
636.292
638.285
643.315
659.268
685.599
713.224
737.973
761.074
782.782
801.987
817.897
830.016
838.02
842.917
844.754
839.812
829.254
824.96
829.855
843.524
850.593
628.227
627.267
629.396
631.521
636.539
653.891
683.117
713.036
738.766
762.536
784.964
804.737
820.939
833.094
840.948
845.194
846.007
841.876
834.524
830.932
836.469
841.331
847.229
620.345
618.93
621.505
624.438
630.861
650.345
682.144
713.459
739.895
764.465
787.757
808.159
824.709
836.907
844.448
847.799
847.366
842.955
836.61
832.333
835.841
839.03
844.653
612.354
610.276
613.305
618.141
627.519
649.336
681.939
713.335
740.545
766.556
791.255
812.416
829.289
841.506
848.532
850.694
848.733
843.372
836.927
832.288
834.35
836.867
843.629
603.922
602.188
605.075
613.062
626.601
645.949
672.084
712.787
740.477
768.521
795.296
817.304
834.382
846.49
852.793
853.554
849.876
843.188
836.071
831.096
832.287
834.954
843.752
976.26
896.925
856.751
913.899
999.207
917.012
913.44
983.1
951.021
874.304
1019.29
1241.07
984.11
742.912
662.482
709.078
710.807
640.486
649.206
975.616
875.261
826.466
888.876
979.419
893.378
908.271
986.223
898.307
772.17
893.171
1134.77
900.948
692.114
621.633
693.347
743.062
595.668
583.924
957.547
840.35
795.862
862.245
951.142
854.683
876.989
959.067
754.379
633.209
751.382
1007.09
799.823
634.617
569.081
627.656
683.441
547.605
580.792
935.378
805.787
749.865
816.581
929.52
831.589
842.257
866.992
612.347
539.293
649.965
860.437
656.315
548.917
528.128
583.554
624.591
605.861
724.245
918.688
778.708
693.417
778.34
936.041
845.833
821.819
725.521
471.64
505.573
634.764
730.204
468.982
405.765
420.221
492.338
585.307
601.572
832.728
908.327
787.788
694.817
796.297
982.922
903.276
827.144
615.914
438.436
474.478
683.882
565.605
248.011
225.89
240.264
299.191
462.684
587.327
875.931
910.209
811.979
720.921
896.551
1045.85
972.462
781.672
421.229
420.336
452.808
621.166
308.762
223.532
218.699
219.077
223.628
270.24
566.969
946.763
916.324
819.55
756.238
936.446
1089.54
1015.96
710.803
375.359
403.328
517.353
531.274
226.774
221.762
216.708
217.485
222.802
257.852
615.552
783.213
443.836
468.277
467.584
484.091
512.157
571.886
647.556
703.166
737.838
771.414
802.925
825.849
843.677
856.173
860.658
858.342
851.544
842.508
833.95
828.451
828.375
831.189
839.34
166.097
84.0932
102.298
143.227
213.379
295.055
364.622
431.871
535.459
652.375
746.538
793.429
814.077
821.781
816.227
798.373
778.064
759.712
745.382
738.119
739.116
749.012
764.722
7.88304
4.69183
2.62526
1.82178
7.95008
25.4868
44.0994
85.2608
181.473
342.832
472.581
505.203
459.968
376.229
309.828
273.064
246.438
218.41
193.057
181.426
194.708
226.267
239.626
4.73218
2.8665
1.72415
1.04226
0.789691
0.388221
0.974135
60.347
268.56
322.569
218.083
98.979
105.404
131.188
140.759
137.518
124.5
110.041
101.38
96.9648
95.359
95.3171
95.5857
2.31663
1.38694
0.802631
0.294701
0.0241033
0.0460298
0.402116
-0.0398981
-0.873966
1.21571
22.8707
188.937
315.1
339.96
331.359
257.391
193.954
134.279
99.8653
96.0979
94.8686
94.6773
94.94
1.0575
0.46185
0.119932
-0.230957
-0.418914
-0.503351
-0.691079
-1.13155
-1.38445
-1.45779
3.74926
151.864
313.53
344.766
370.748
392.926
413.898
401.709
135.73
97.5078
94.7761
94.6373
94.8722
0.506797
-0.0161703
-0.243158
-0.507437
-0.638367
-0.73833
-0.942888
-1.39933
-1.8261
-1.10875
-1.28099
-2.55679
-1.15913
56.6695
280.162
387.571
416.151
440.593
470.749
273.283
95.4152
94.7343
94.8537
0.222755
-0.241692
-0.425999
-0.640338
-0.751247
-0.862407
-1.02966
-1.35684
-1.78411
-2.0343
-2.07629
-2.12465
-1.78987
-1.487
-0.98306
5.49475
300.188
446.379
478.706
523.232
296.538
94.9493
94.8407
0.0548571
-0.360003
-0.561059
-0.735023
-0.826057
-0.92122
-1.05883
-1.27474
-1.54273
-1.78487
-1.8904
-1.81023
-1.60918
-1.49724
-1.32341
-0.953256
-0.318409
75.5561
466.988
539.549
593.172
515.954
134.994
-0.0370466
-0.403531
-0.659076
-0.820329
-0.8762
-0.929244
-1.02551
-1.17466
-1.34876
-1.50779
-1.59285
-1.55131
-1.4325
-1.31832
-1.21029
-1.09097
-0.941765
-0.739508
0.314801
312.48
621.075
660.019
681.895
-0.106338
-0.3532
-0.637203
-0.81325
-0.858551
-0.884331
-0.9527
-1.06357
-1.18566
-1.29054
-1.34884
-1.33983
-1.27667
-1.19412
-1.10856
-1.02214
-0.92331
-0.81183
-0.74225
-0.808049
39.9687
511.004
670.107
-0.195577
-0.276456
-0.481784
-0.663242
-0.744293
-0.788886
-0.858595
-0.954221
-1.05053
-1.12919
-1.17621
-1.18254
-1.15189
-1.09871
-1.03477
-0.973077
-0.90994
-0.849671
-0.806109
-0.767929
-0.87099
-1.62043
148.215
-0.275192
-0.23678
-0.309308
-0.466691
-0.588081
-0.673628
-0.760584
-0.852994
-0.938003
-1.00608
-1.051
-1.06843
-1.05962
-1.03132
-0.99208
-0.953091
-0.921992
-0.894603
-0.857589
-0.844404
-1.01391
-1.40406
-1.81409
-0.293673
-0.214349
-0.222171
-0.342167
-0.47125
-0.578885
-0.676022
-0.76552
-0.843604
-0.906742
-0.952158
-0.978166
-0.985917
-0.979547
-0.964878
-0.949237
-0.938943
-0.945191
-0.532359
0.0638181
-1.12969
-1.64211
-1.51901
-0.270794
-0.204935
-0.214908
-0.304135
-0.415025
-0.518257
-0.611287
-0.694028
-0.765579
-0.824914
-0.870876
-0.903124
-0.923111
-0.934369
-0.941814
-0.951633
-0.970564
-1.00775
-0.800822
-0.0279312
-0.775504
-1.82154
-1.99441
-0.251429
-0.227386
-0.244125
-0.308848
-0.395009
-0.481687
-0.562875
-0.636473
-0.701384
-0.757058
-0.803109
-0.839811
-0.868694
-0.893052
-0.917845
-0.949559
-0.997879
-1.07023
-1.18915
-0.330645
1.98148
-1.14118
-2.32962
-0.256532
-0.25854
-0.274176
-0.322275
-0.38762
-0.457023
-0.525266
-0.589317
-0.647582
-0.699472
-0.744859
-0.784219
-0.819004
-0.852135
-0.888291
-0.933726
-0.997918
-1.09084
-1.23001
-1.41755
2.66545
2.84968
-2.15755
-0.270943
-0.278702
-0.29426
-0.33203
-0.38212
-0.437536
-0.49431
-0.549405
-0.601162
-0.648928
-0.692611
-0.732674
-0.770377
-0.808132
-0.849813
-0.900779
-0.967873
-1.06121
-1.19186
-1.37666
0.386742
3.2806
2.86568
-0.282178
-0.289072
-0.305219
-0.335848
-0.375249
-0.420028
-0.467227
-0.514344
-0.559894
-0.603206
-0.644159
-0.683116
-0.721056
-0.759821
-0.802296
-0.852659
-0.915559
-0.998325
-1.11016
-1.27082
-1.48465
2.13013
4.9612
-0.288737
-0.293969
-0.309407
-0.334566
-0.366311
-0.402908
-0.442239
-0.482405
-0.522152
-0.560836
-0.598281
-0.634712
-0.670807
-0.707854
-0.747827
-0.793626
-0.848484
-0.91657
-1.00333
-1.12257
-1.29319
-1.38058
-0.374861
-0.290797
-0.294781
-0.308524
-0.32933
-0.355285
-0.385429
-0.418284
-0.452422
-0.486815
-0.520863
-0.554329
-0.587292
-0.620153
-0.653713
-0.689185
-0.728266
-0.772897
-0.824802
-0.885665
-0.958129
-1.05732
-1.17064
-1.25304
-0.288765
-0.291907
-0.303727
-0.32099
-0.342375
-0.36732
-0.39479
-0.423696
-0.453199
-0.482746
-0.51205
-0.541058
-0.569939
-0.599097
-0.629151
-0.660865
-0.695052
-0.731934
-0.771191
-0.809889
-0.85046
-0.891147
-0.911508
-0.283392
-0.285894
-0.295891
-0.310219
-0.327897
-0.348577
-0.371515
-0.39587
-0.420947
-0.446245
-0.471439
-0.496374
-0.521042
-0.545555
-0.570115
-0.594913
-0.620048
-0.645086
-0.669069
-0.688812
-0.701635
-0.705001
-0.694754
-0.275349
-0.277329
-0.285698
-0.297574
-0.312185
-0.329314
-0.348408
-0.368801
-0.389913
-0.411291
-0.432596
-0.4536
-0.47417
-0.494235
-0.513741
-0.53258
-0.550516
-0.566955
-0.580933
-0.590439
-0.593167
-0.586951
-0.570993
-0.265185
-0.266731
-0.273689
-0.283508
-0.295552
-0.309696
-0.325514
-0.342466
-0.360066
-0.377902
-0.395639
-0.413009
-0.4298
-0.445832
-0.460919
-0.474813
-0.487148
-0.497346
-0.504594
-0.507625
-0.504951
-0.49483
-0.476229
-0.253367
-0.254547
-0.2603
-0.268389
-0.278274
-0.289895
-0.302919
-0.316897
-0.331415
-0.346108
-0.360649
-0.374757
-0.388181
-0.400684
-0.412018
-0.421881
-0.429884
-0.435504
-0.438078
-0.436725
-0.430498
-0.418336
-0.399759
-0.240281
-0.241147
-0.245883
-0.252514
-0.260579
-0.270068
-0.280711
-0.29213
-0.303973
-0.315916
-0.32765
-0.338897
-0.349394
-0.358888
-0.367109
-0.373754
-0.37846
-0.380787
-0.380221
-0.376163
-0.368049
-0.355335
-0.337894
-0.226234
-0.226835
-0.230719
-0.236124
-0.242657
-0.250345
-0.258965
-0.268197
-0.277739
-0.287304
-0.296611
-0.305396
-0.313405
-0.320387
-0.326083
-0.330212
-0.332463
-0.332486
-0.329908
-0.324332
-0.315429
-0.302912
-0.286767
-0.211476
-0.21186
-0.215034
-0.21941
-0.224657
-0.230829
-0.237736
-0.24511
-0.252691
-0.260225
-0.267464
-0.274166
-0.280095
-0.285019
-0.288702
-0.290898
-0.291352
-0.289794
-0.285958
-0.279585
-0.270485
-0.258512
-0.24372
-0.196208
-0.196428
-0.199006
-0.202521
-0.206693
-0.211592
-0.21706
-0.222866
-0.22879
-0.234612
-0.240113
-0.245078
-0.249298
-0.252562
-0.254664
-0.255397
-0.254555
-0.251937
-0.247355
-0.240644
-0.231702
-0.220472
-0.207041
-0.18059
-0.180698
-0.182776
-0.185572
-0.188849
-0.192686
-0.196951
-0.201446
-0.205985
-0.21038
-0.214441
-0.217981
-0.220814
-0.222761
-0.223643
-0.22329
-0.221542
-0.218249
-0.213282
-0.206541
-0.19798
-0.187587
-0.175459
-0.164752
-0.164797
-0.166448
-0.168648
-0.171184
-0.174141
-0.177409
-0.180817
-0.184213
-0.187434
-0.190318
-0.192704
-0.194435
-0.195355
-0.195317
-0.194185
-0.191833
-0.188154
-0.183061
-0.176494
-0.168443
-0.158918
-0.148017
-0.148796
-0.148813
-0.1501
-0.151814
-0.153737
-0.155972
-0.158421
-0.16094
-0.163401
-0.16567
-0.167607
-0.169077
-0.169947
-0.170088
-0.16938
-0.167715
-0.164997
-0.161148
-0.156111
-0.149855
-0.142386
-0.133731
-0.123981
-0.132803
-0.132809
-0.133792
-0.135113
-0.136535
-0.138183
-0.139966
-0.141764
-0.143474
-0.144981
-0.14617
-0.14693
-0.147148
-0.14672
-0.145548
-0.143548
-0.140648
-0.136791
-0.131941
-0.126084
-0.119237
-0.111435
-0.102759
-0.116837
-0.116826
-0.117566
-0.118575
-0.11959
-0.120766
-0.122014
-0.123238
-0.124354
-0.125265
-0.125879
-0.126104
-0.125848
-0.125026
-0.123561
-0.121387
-0.118448
-0.114706
-0.110137
-0.10474
-0.0985372
-0.0915637
-0.0838935
-0.100946
-0.100896
-0.101455
-0.102216
-0.102906
-0.10371
-0.104535
-0.10531
-0.105967
-0.106426
-0.106613
-0.106455
-0.105876
-0.10481
-0.103193
-0.100976
-0.0981166
-0.0945881
-0.0903774
-0.0854893
-0.0799485
-0.07379
-0.0670817
-0.085157
-0.0850413
-0.0854752
-0.08604
-0.0864758
-0.0869944
-0.0874954
-0.0879315
-0.0882477
-0.0883784
-0.0882686
-0.0878578
-0.0870874
-0.0859037
-0.0842587
-0.0821128
-0.0794366
-0.0762114
-0.0724311
-0.0681045
-0.0632568
-0.0579228
-0.0521676
-0.0694834
-0.069278
-0.0696322
-0.070043
-0.0702881
-0.0705971
-0.070859
-0.0710524
-0.0711306
-0.0710435
-0.0707505
-0.0702038
-0.0693583
-0.0681728
-0.0666107
-0.0646428
-0.0622484
-0.0594155
-0.0561429
-0.0524412
-0.0483355
-0.0438611
-0.0390828
-0.0539169
-0.0536079
-0.0539249
-0.0542131
-0.0543231
-0.0544871
-0.0545837
-0.0546185
-0.0545494
-0.0543425
-0.0539685
-0.0533908
-0.0525768
-0.0514962
-0.0501222
-0.0484344
-0.0464192
-0.0440695
-0.0413868
-0.0383828
-0.0350816
-0.031518
-0.0277549
-0.0384679
-0.0380641
-0.0383598
-0.0385434
-0.0385671
-0.0386405
-0.0386359
-0.0385862
-0.0384505
-0.0382108
-0.0378469
-0.0373326
-0.0366467
-0.0357686
-0.0346802
-0.0333684
-0.0318248
-0.0300463
-0.0280356
-0.0258037
-0.0233713
-0.0207694
-0.0180552
-0.0230093
-0.0225871
-0.0228957
-0.0229828
-0.0229604
-0.0229823
-0.0229333
-0.0228625
-0.0227314
-0.0225363
-0.0222638
-0.021898
-0.0214277
-0.020841
-0.0201272
-0.0192795
-0.0182932
-0.0171677
-0.015905
-0.014513
-0.0130059
-0.0114048
-0.00975279
-0.00802501
-0.00754679
-0.00767017
-0.00768445
-0.00766666
-0.00767254
-0.00762596
-0.00758191
-0.00750522
-0.00740596
-0.00727599
-0.00711199
-0.00691195
-0.00667219
-0.00638922
-0.0060614
-0.00568887
-0.00527278
-0.00481436
-0.00431762
-0.00378882
-0.00323754
-0.00268335
848.508
854.169
864.271
879.024
739.154
723.265
735.869
780.873
178.015
160.137
168.191
228.822
95.7423
95.7073
95.6668
96.6598
95.1726
95.2728
95.461
95.9777
95.1031
95.2151
95.329
95.5639
95.0586
95.3971
96.292
96.8958
95.0369
97.7691
129.906
167.655
110.657
114.942
450.027
957.007
650.772
574.124
741.451
914.91
671.763
592.976
587.656
687.282
175.129
3.89146
53.6513
187.596
-1.50555
-1.15073
-1.17452
-1.28474
-0.981699
-1.22571
-1.4333
-1.42559
0.691218
1.39239
0.266159
-1.22397
-2.37869
1.34709
2.40726
2.81136
-2.30655
-2.25593
-0.737529
3.15853
0.654967
-1.50515
-1.19899
1.45183
4.89115
4.87578
4.94714
5.05875
1.77409
2.1167
1.56518
0.550783
-1.25175
-1.21578
-1.16289
-1.0807
-0.887816
-0.858328
-0.823512
-0.774873
-0.667287
-0.643198
-0.61696
-0.585355
-0.547606
-0.527862
-0.503537
-0.478187
-0.453748
-0.436242
-0.417326
-0.397627
-0.380194
-0.365865
-0.350602
-0.334581
-0.320835
-0.308603
-0.295733
-0.282289
-0.27171
-0.261112
-0.250057
-0.238604
-0.230432
-0.221221
-0.211665
-0.20176
-0.195318
-0.187276
-0.178962
-0.170341
-0.165104
-0.158055
-0.150784
-0.143277
-0.138878
-0.132697
-0.126335
-0.119786
-0.115932
-0.110515
-0.10495
-0.0992333
-0.0956894
-0.090952
-0.0860895
-0.0811041
-0.0777137
-0.0735885
-0.0693591
-0.0650301
-0.0617322
-0.0581775
-0.0545409
-0.0508268
-0.0476256
-0.0446246
-0.0415676
-0.0384605
-0.0353572
-0.0329123
-0.0304373
-0.0279395
-0.0248619
-0.0229768
-0.0210817
-0.0191843
-0.0160041
-0.0146802
-0.0133691
-0.0120867
-0.0085211
-0.00773169
-0.00696296
-0.00623003
-0.00228222
-0.00203269
-0.0017979
-0.00158571
915.733
839.276
837.93
943.352
1101.53
975.383
459.723
337.897
362.219
542.005
439.964
225.955
220.621
214.029
211.75
234.301
346.189
640.47
579.678
859.515
870.3
562.924
674.495
1018.42
734.128
272.845
291.27
386.798
537.302
324.555
225.277
215.604
214.806
233.01
357.87
430.751
494.501
797.522
422.676
551.881
544.313
769.834
972.076
493.339
213.103
243.723
503.019
545.362
245.582
199.048
202.478
264.756
298.733
351.075
391.265
486.068
862.513
103.902
302.546
818.959
944.087
971.422
432.397
168.32
219.43
515.697
514.444
179.788
166.119
324.437
569.437
502.242
390.761
433.853
516.572
967.436
98.2886
184.96
794.427
999.103
984.643
357.552
137.916
181.864
518.726
509.203
193.329
217.769
538.97
564.837
634.855
630.79
589.802
722.471
1291.25
96.4985
103.09
535.367
1074.99
845.387
161.858
129.775
134.301
454.85
498.341
212.294
476.709
425.302
420.023
430.73
716.784
991.311
1231.22
1478.72
98.7894
100.848
284.769
937.375
909.84
149.587
138.264
116.902
470.588
130.955
140.563
102.107
18.7385
4.99207
3.32598
17.3228
107.69
595.872
1279.77
209.085
296.05
749.56
1164.47
1176.4
583.146
256.189
538.124
651.539
10.1454
8.22301
6.40123
2.62703
-0.927253
-1.94377
1.2305
16.778
88.1839
504.113
1224.96
1245.17
1270.29
1293.94
1317.15
1315.55
1181.15
1171.44
867.149
8.12648
7.59885
5.8142
0.909727
-2.40179
-2.85494
-1.51981
1.37962
34.8195
502.9
765.81
566.332
555.165
666.764
1090.29
1333.55
1292.48
1239.72
1080.99
307.767
6.81508
4.28072
0.945541
-1.23007
-1.54158
-0.797623
0.304865
25.567
865.856
630.831
446.578
471.083
584.565
523.038
624.81
751
687.138
564.373
561.609
250.697
3.03958
1.27294
0.470861
0.307842
0.484367
1.15453
2.72189
93.3834
285.775
343.574
297.15
332.056
462.83
480.343
422.147
224.709
76.4379
129.529
161.168
30.3726
1.57332
1.58802
1.33198
1.23433
2.07746
1.39508
1.46266
-1.25351
-1.13115
-1.04331
-1.12269
-0.394775
20.1217
13.7657
0.287242
-0.165378
-1.57289
8.50567
11.7321
1.91158
1.75986
1.53795
1.4941
9.17297
2.3149
1.42348
-1.22761
-0.974487
-0.868968
-0.873702
-0.890531
-0.925078
-0.652634
-0.284647
-0.574855
-0.880456
-0.627684
0.282896
1.34305
1.29135
1.28148
2.07649
10.1185
2.56575
1.37328
-0.940271
-0.700709
-0.482338
-0.478283
-0.614694
-0.777654
-0.941424
-1.01338
-0.951368
-0.696625
-0.130278
0.548756
0.964686
0.962757
0.940695
2.15602
10.2094
2.16785
1.32902
3.3403
-0.42004
-0.13397
-0.0158313
-0.206589
-0.65171
-1.13875
-1.33061
-1.11941
-0.653337
-0.0834357
0.408468
0.672124
0.686489
0.636109
1.78799
10.0191
1.75335
7.16526
3.81912
2.27613
-0.114832
0.0243855
-0.0676666
-0.50186
-1.0338
-1.23671
-1.01421
-0.558522
-0.0857063
0.263104
0.448505
0.47385
0.403187
1.2649
9.82839
0.970984
45.4881
4.16336
0.992145
-0.2281
-0.078447
-0.134683
-0.368943
-0.67492
-0.840928
-0.724969
-0.411546
-0.0842604
0.157524
0.294599
0.324302
0.261232
0.617295
6.78054
0.199085
49.8967
3.71047
-0.703232
-0.35608
-0.194895
-0.191176
-0.315277
-0.470529
-0.548051
-0.472948
-0.289122
-0.0816535
0.0902198
0.199122
0.235507
0.203739
0.59952
0.0779576
0.00315044
-0.0181074
-1.1541
-0.729246
-0.420334
-0.267066
-0.240612
-0.2905
-0.355115
-0.378502
-0.327964
-0.212845
-0.0715104
0.0561889
0.148382
0.193851
0.201344
0.745829
0.12797
0.125328
0.199398
-0.911742
-0.640838
-0.414562
-0.292955
-0.256488
-0.26392
-0.279141
-0.273654
-0.229738
-0.148959
-0.0489841
0.0477991
0.127319
0.180068
0.218323
0.851533
0.554613
0.433969
0.379471
-0.678084
-0.519631
-0.378597
-0.291038
-0.250343
-0.233923
-0.221733
-0.198993
-0.156937
-0.0955841
-0.0222557
0.0520299
0.120868
0.177808
0.235415
0.837417
1.35692
1.00827
0.544486
-0.526473
-0.433114
-0.342344
-0.273927
-0.230138
-0.200963
-0.174819
-0.143332
-0.102301
-0.0522267
0.00370375
0.0607196
0.118992
0.175879
0.242969
1.03381
1.47305
1.19175
0.657023
-0.43434
-0.368877
-0.302524
-0.245729
-0.202142
-0.16718
-0.134038
-0.0980524
-0.0580187
-0.0158296
0.0267269
0.0683608
0.11497
0.167955
0.236822
0.931319
1.54413
0.824833
0.698925
-0.363705
-0.313472
-0.261538
-0.213366
-0.171722
-0.134605
-0.0982459
-0.0603411
-0.0218828
0.0136504
0.0448322
0.0722634
0.106995
0.153706
0.219935
0.51256
0.768971
0.639117
0.681799
-0.306869
-0.265931
-0.223059
-0.18118
-0.142066
-0.104872
-0.0675136
-0.0292764
0.0069874
0.0366647
0.0585603
0.0739021
0.098123
0.136687
0.196418
0.315317
0.468151
0.580612
0.625381
-0.25909
-0.224672
-0.188254
-0.151471
-0.115369
-0.0795412
-0.0427981
-0.00559659
0.0280426
0.0534865
0.0697872
0.0776585
0.0948844
0.124269
0.174947
0.293451
0.431892
0.514409
0.551049
-0.218849
-0.189411
-0.158011
-0.12564
-0.092927
-0.0596354
-0.0251059
0.0096119
0.0405182
0.0643154
0.0814604
0.0935793
0.104329
0.126686
0.165409
0.284716
0.386587
0.443406
0.474791
-0.184702
-0.159288
-0.132122
-0.103866
-0.0749528
-0.0452362
-0.0144591
0.0172348
0.0457381
0.0696361
0.100859
0.116034
0.128975
0.142919
0.187849
0.26514
0.333786
0.378275
0.406006
-0.155523
-0.133509
-0.110051
-0.085661
-0.0606837
-0.0350689
-0.00887478
0.0185768
0.0453687
0.0694427
0.104815
0.123574
0.145552
0.163339
0.195543
0.242321
0.287538
0.323041
0.348319
-0.130385
-0.111293
-0.0910617
-0.0701222
-0.0487523
-0.0269703
-0.00498625
0.017229
0.0412463
0.0648609
0.0933184
0.120203
0.143657
0.163556
0.188271
0.213887
0.250262
0.276882
0.302036
-0.108556
-0.0919711
-0.0744844
-0.0564309
-0.0379971
-0.0192035
-0.000280319
0.0186341
0.0380223
0.059169
0.077128
0.0961288
0.123314
0.144453
0.166594
0.187364
0.217986
0.234954
0.266221
-0.0894414
-0.0750125
-0.0598478
-0.0441751
-0.0280824
-0.0115571
0.00519404
0.0218834
0.0385693
0.0550463
0.0709845
0.0863301
0.102445
0.119372
0.140014
0.161148
0.184802
0.193849
0.650268
-0.0725693
-0.0600241
-0.0468795
-0.0332842
-0.0192707
-0.00481358
0.00988032
0.0244017
0.0385314
0.0520008
0.0646146
0.0765026
0.0890509
0.102241
0.117855
0.132924
0.147687
0.154143
3.01365
-0.0576268
-0.0467876
-0.035493
-0.0238666
-0.0119454
0.000276155
0.0125559
0.0244937
0.0358911
0.0465403
0.0562058
0.0650025
0.0742799
0.0836929
0.0947892
0.104856
0.11174
0.116078
2.57366
-0.0444929
-0.0352903
-0.0258108
-0.0161854
-0.00647346
0.00330957
0.0128871
0.0219784
0.0305419
0.0384588
0.0454798
0.0517241
0.0582951
0.0647212
0.0723239
0.0787157
0.0818085
0.0847489
0.0674214
-0.0331896
-0.0256427
-0.0180253
-0.0104758
-0.00306395
0.00420062
0.0110654
0.0174129
0.0233074
0.0286666
0.0332953
0.0373375
0.0415606
0.04561
0.0504838
0.0542475
0.0560762
0.0583151
0.0514676
-0.0237412
-0.017883
-0.0121666
-0.00671419
-0.00158397
0.00323527
0.00757193
0.011433
0.014877
0.0178333
0.0201922
0.0221678
0.0242429
0.0262779
0.0288809
0.030624
0.0316547
0.0325257
0.0293575
-0.016064
-0.0118901
-0.00804807
-0.00463258
-0.00167559
0.000851827
0.00286416
0.00441081
0.00551358
0.0061533
0.00634102
0.00634351
0.00645386
0.00671221
0.00740019
0.00759125
0.00781823
0.0076228
0.0061643
-0.00996777
-0.00739624
-0.00534459
-0.00387639
-0.00297933
-0.00261258
-0.00280617
-0.00350838
-0.00468136
-0.00625229
-0.00809556
-0.00994285
-0.0115962
-0.012943
-0.0138925
-0.0149368
-0.0155867
-0.0165026
-0.0172738
-0.00509137
-0.00405598
-0.00373957
-0.00415738
-0.00527257
-0.00704633
-0.00946015
-0.0124334
-0.0158545
-0.0195566
-0.0233429
-0.0269671
-0.0302749
-0.0331615
-0.0356169
-0.0378215
-0.0394502
-0.0409493
-0.0415824
-0.00134661
-0.00176206
-0.0031565
-0.00548593
-0.00869201
-0.0127438
-0.017538
-0.0229434
-0.028767
-0.0347438
-0.0406225
-0.0461293
-0.0511678
-0.0556627
-0.0596589
-0.0632546
-0.065967
-0.0683395
-0.0688454
)
;

boundaryField
{
    leftWall
    {
        type            fixedFluxPressure;
        gradient        uniform 0;
        value           nonuniform List<scalar> 
50
(
645.65
645.045
641.474
635.528
628.227
620.345
612.354
603.922
443.836
166.097
7.88304
4.73218
2.31663
1.0575
0.506797
0.222755
0.0548571
-0.0370466
-0.106338
-0.195577
-0.275192
-0.293673
-0.270794
-0.251429
-0.256532
-0.270943
-0.282178
-0.288737
-0.290797
-0.288765
-0.283392
-0.275349
-0.265185
-0.253367
-0.240281
-0.226234
-0.211476
-0.196208
-0.18059
-0.164752
-0.148796
-0.132803
-0.116837
-0.100946
-0.085157
-0.0694834
-0.0539169
-0.0384679
-0.0230093
-0.00802501
)
;
    }
    rightWall
    {
        type            fixedFluxPressure;
        gradient        uniform 0;
        value           nonuniform List<scalar> 
50
(
649.206
583.924
580.792
724.245
832.728
875.931
946.763
783.213
579.678
797.522
862.513
967.436
1291.25
1478.72
1279.77
504.113
502.9
865.856
93.3834
1.46266
1.42348
1.37328
1.32902
7.16526
45.4881
49.8967
-0.0181074
0.199398
0.379471
0.544486
0.657023
0.698925
0.681799
0.625381
0.551049
0.474791
0.406006
0.348319
0.302036
0.266221
0.650268
3.01365
2.57366
0.0674214
0.0514676
0.0293575
0.0061643
-0.0172738
-0.0415824
-0.0688454
)
;
    }
    lowerWall
    {
        type            fixedFluxPressure;
        gradient        uniform 0;
        value           nonuniform List<scalar> 
62
(
645.65
645.703
646.89
649.582
656.578
671.018
692.022
715.092
737.518
759.231
779.614
797.925
813.272
825.048
833.266
837.793
834.709
827.131
826.383
826.17
838.484
855.975
861.763
861.763
858.325
854.35
850.593
847.229
844.653
843.629
843.752
848.508
854.169
864.271
879.024
976.26
975.616
957.547
935.378
918.688
908.327
910.209
916.324
976.26
896.925
856.751
913.899
999.207
917.012
913.44
983.1
951.021
874.304
1019.29
1241.07
984.11
742.912
662.482
709.078
710.807
640.486
649.206
)
;
    }
    atmosphere
    {
        type            totalPressure;
        rho             rho;
        psi             none;
        gamma           1;
        p0              uniform 0;
        value           nonuniform List<scalar> 
46
(
0
0
0
0
0
0
0
0
0
0
0
0
0
0
0
0
0
0
0
0
0
0
0
0
0
0
0
-0.000112162
-0.00118879
-0.0034124
-0.00674821
-0.0110428
-0.0163282
-0.0224062
-0.0291686
-0.0363814
-0.0436962
-0.0508228
-0.0573995
-0.063429
-0.0688172
-0.0736855
-0.0782749
-0.0815422
-0.0848852
-0.0848944
)
;
    }
    defaultFaces
    {
        type            empty;
    }
}


// ************************************************************************* //
