/*--------------------------------*- C++ -*----------------------------------*\
| =========                 |                                                 |
| \\      /  F ield         | OpenFOAM: The Open Source CFD Toolbox           |
|  \\    /   O peration     | Version:  5.x                                   |
|   \\  /    A nd           | Web:      www.OpenFOAM.org                      |
|    \\/     M anipulation  |                                                 |
\*---------------------------------------------------------------------------*/
FoamFile
{
    version     2.0;
    format      ascii;
    class       surfaceScalarField;
    location    "0.8";
    object      phi;
}
// * * * * * * * * * * * * * * * * * * * * * * * * * * * * * * * * * * * * * //

dimensions      [0 3 -1 0 0 0 0];

internalField   nonuniform List<scalar> 
4432
(
-4.37564e-06
4.37564e-06
-9.38277e-06
5.00713e-06
-1.41207e-05
4.73797e-06
-1.87741e-05
4.65338e-06
-2.23801e-05
3.60602e-06
-2.31507e-05
7.70598e-07
-2.12511e-05
-1.89968e-06
-1.87002e-05
-2.55091e-06
-1.70662e-05
-1.63391e-06
-1.64546e-05
-6.11603e-07
-1.64695e-05
1.48174e-08
-1.68406e-05
3.71146e-07
-1.74757e-05
6.3508e-07
-1.81926e-05
7.16882e-07
-1.83643e-05
1.71685e-07
-1.74856e-05
-8.78613e-07
-1.79901e-05
5.04468e-07
-2.31029e-05
5.1128e-06
-2.7949e-05
4.84612e-06
-2.69844e-05
-9.64673e-07
-2.0066e-05
-6.91833e-06
-9.60188e-06
-1.04642e-05
-9.60188e-06
-6.72454e-06
1.11002e-05
-1.26743e-05
1.09569e-05
-1.7614e-05
9.67766e-06
-2.18289e-05
8.86822e-06
-2.4379e-05
6.15612e-06
-2.43474e-05
7.39034e-07
-2.20739e-05
-4.17322e-06
-1.91709e-05
-5.45391e-06
-1.72451e-05
-3.5597e-06
-1.64641e-05
-1.39265e-06
-1.62726e-05
-1.76671e-07
-1.6305e-05
4.03562e-07
-1.63743e-05
7.04345e-07
-1.65651e-05
9.07728e-07
-1.73261e-05
9.32682e-07
-1.94693e-05
1.26455e-06
-2.2918e-05
3.95314e-06
-2.52936e-05
7.48842e-06
-2.40125e-05
3.56501e-06
-1.94523e-05
-5.52479e-06
-1.35428e-05
-1.28278e-05
-6.65372e-06
-1.73533e-05
-1.62556e-05
-6.33158e-06
1.74318e-05
-1.16972e-05
1.63225e-05
-1.64733e-05
1.44538e-05
-2.10229e-05
1.34179e-05
-2.42297e-05
9.36288e-06
-2.46717e-05
1.18107e-06
-2.26424e-05
-6.20254e-06
-1.99159e-05
-8.18041e-06
-1.79653e-05
-5.51033e-06
-1.70556e-05
-2.30239e-06
-1.66833e-05
-5.48966e-07
-1.62485e-05
-3.11994e-08
-1.54777e-05
-6.64638e-08
-1.4425e-05
-1.44953e-07
-1.36426e-05
1.50264e-07
-1.39908e-05
1.61276e-06
-1.48923e-05
4.85461e-06
-1.40938e-05
6.68995e-06
-1.14378e-05
9.09051e-07
-8.07986e-06
-8.88276e-06
-5.1146e-06
-1.57931e-05
-2.179e-06
-2.02889e-05
-1.84346e-05
-5.08589e-06
2.25177e-05
-9.79382e-06
2.10304e-05
-1.43512e-05
1.90111e-05
-1.8684e-05
1.77507e-05
-2.16177e-05
1.22966e-05
-2.22803e-05
1.8437e-06
-2.11457e-05
-7.33717e-06
-1.97526e-05
-9.57354e-06
-1.86826e-05
-6.58032e-06
-1.8029e-05
-2.95594e-06
-1.77258e-05
-8.52161e-07
-1.73279e-05
-4.29138e-07
-1.64503e-05
-9.44055e-07
-1.49385e-05
-1.65677e-06
-1.29319e-05
-1.85637e-06
-1.06736e-05
-6.45507e-07
-7.7985e-06
1.97951e-06
-4.05224e-06
2.94369e-06
-9.54853e-07
-2.18834e-06
9.92082e-07
-1.08297e-05
9.34592e-07
-1.57356e-05
7.46086e-07
-2.01004e-05
-1.76885e-05
-3.43736e-06
2.5955e-05
-7.18324e-06
2.47763e-05
-1.09279e-05
2.27558e-05
-1.41547e-05
2.09775e-05
-1.60168e-05
1.41587e-05
-1.66086e-05
2.43552e-06
-1.70242e-05
-6.92155e-06
-1.80423e-05
-8.55546e-06
-1.89268e-05
-5.69579e-06
-1.91227e-05
-2.76006e-06
-1.89749e-05
-9.99981e-07
-1.85394e-05
-8.64595e-07
-1.75899e-05
-1.89357e-06
-1.59769e-05
-3.26979e-06
-1.37135e-05
-4.11976e-06
-1.06734e-05
-3.68561e-06
-6.49712e-06
-2.19679e-06
-1.78945e-06
-1.76398e-06
1.47855e-06
-5.45633e-06
2.59466e-06
-1.19458e-05
2.02968e-06
-1.51706e-05
1.21085e-06
-1.92816e-05
-1.64776e-05
-1.30237e-06
2.72574e-05
-3.54769e-06
2.70216e-05
-6.15408e-06
2.53622e-05
-8.03389e-06
2.28573e-05
-8.63032e-06
1.47551e-05
-9.16661e-06
2.97181e-06
-1.15503e-05
-4.53785e-06
-1.54213e-05
-4.68447e-06
-1.86635e-05
-2.45364e-06
-2.01372e-05
-1.2863e-06
-2.03407e-05
-7.96478e-07
-1.98325e-05
-1.37284e-06
-1.86697e-05
-3.05635e-06
-1.67896e-05
-5.14992e-06
-1.42989e-05
-6.6104e-06
-1.12857e-05
-6.69882e-06
-7.60047e-06
-5.88205e-06
-3.61195e-06
-5.7525e-06
-7.87955e-07
-8.28032e-06
5.40579e-07
-1.32744e-05
4.98443e-07
-1.51284e-05
5.30782e-07
-1.93139e-05
-1.59469e-05
9.33557e-07
2.63238e-05
2.66208e-07
2.7689e-05
-8.8379e-07
2.65122e-05
-1.16523e-06
2.31387e-05
-3.89504e-07
1.39794e-05
-1.53513e-06
4.11744e-06
-7.01656e-06
9.43583e-07
-1.34734e-05
1.77241e-06
-1.84122e-05
2.48514e-06
-2.11182e-05
1.41964e-06
-2.18207e-05
-9.3924e-08
-2.12683e-05
-1.92529e-06
-1.98197e-05
-4.50492e-06
-1.75203e-05
-7.44928e-06
-1.45461e-05
-9.58467e-06
-1.12681e-05
-9.97676e-06
-7.79953e-06
-9.35062e-06
-4.46777e-06
-9.08426e-06
-1.96763e-06
-1.07805e-05
-6.4222e-07
-1.45998e-05
-2.57156e-08
-1.57449e-05
4.65895e-07
-1.98055e-05
-1.5481e-05
3.37234e-06
2.29515e-05
5.73201e-06
2.53293e-05
7.12306e-06
2.51211e-05
8.32906e-06
2.19327e-05
7.31272e-06
1.49957e-05
1.58783e-06
9.84233e-06
-6.82121e-06
9.35263e-06
-1.37912e-05
8.74239e-06
-1.8516e-05
7.20999e-06
-2.15769e-05
4.48049e-06
-2.28742e-05
1.20335e-06
-2.24916e-05
-2.30784e-06
-2.05189e-05
-6.47759e-06
-1.72403e-05
-1.07279e-05
-1.34529e-05
-1.3372e-05
-9.87229e-06
-1.35574e-05
-6.50274e-06
-1.27202e-05
-3.40953e-06
-1.21775e-05
-9.07402e-07
-1.32826e-05
5.93396e-07
-1.61006e-05
1.68583e-06
-1.68374e-05
1.65714e-06
-1.97769e-05
-1.38238e-05
-1.66455e-05
1.66455e-05
-4.12762e-05
2.46307e-05
-4.75525e-05
6.27627e-06
-3.16121e-05
-1.59404e-05
-2.6883e-06
-2.89238e-05
1.16678e-05
-1.43561e-05
5.17542e-06
6.49243e-06
-1.46081e-05
1.97835e-05
-6.61006e-05
5.14925e-05
-0.000105061
3.89603e-05
-7.24372e-05
-3.26237e-05
-5.58538e-07
-7.18786e-05
3.37802e-05
-3.43387e-05
3.99401e-05
-6.15995e-06
2.38718e-05
1.60684e-05
5.46348e-06
1.84083e-05
-1.0358e-05
1.58215e-05
-1.73907e-05
7.03274e-06
-1.73907e-05
-2.71109e-05
4.37564e-05
-4.3771e-05
4.12909e-05
-4.0508e-05
3.01327e-06
-2.36725e-05
-3.27759e-05
4.40816e-07
-5.30371e-05
1.06108e-05
-2.45261e-05
-8.63536e-06
2.57386e-05
-6.33425e-05
7.44906e-05
-0.000117317
0.000105467
-9.94468e-05
2.10906e-05
-4.23213e-05
-8.97492e-05
1.33763e-05
-0.000127576
4.30494e-05
-6.40118e-05
5.92772e-05
-2.23877e-05
5.83858e-05
1.69598e-05
2.21393e-05
5.46547e-05
-2.18263e-05
5.97871e-05
-3.93583e-05
2.45647e-05
-5.6749e-05
-2.30087e-05
6.67651e-05
-3.26369e-05
5.09191e-05
-2.91881e-05
-4.35548e-07
-1.66556e-05
-4.53084e-05
-6.98681e-07
-6.89941e-05
-9.14886e-07
-2.43099e-05
-3.76268e-05
6.24505e-05
-9.62672e-05
0.000133131
-0.000116972
0.000126171
-7.5559e-05
-2.03223e-05
-2.72344e-05
-0.000138074
1.10119e-05
-0.000165823
3.21965e-05
-8.51964e-05
4.60188e-05
-3.621e-05
5.69376e-05
6.04096e-06
5.07134e-05
6.0879e-05
2.12046e-05
8.92958e-05
-9.36044e-06
5.51298e-05
-6.61095e-05
-1.5465e-05
8.22301e-05
-2.09754e-05
5.64294e-05
-1.91085e-05
-2.30241e-06
-1.01616e-05
-5.42553e-05
-4.39659e-06
-7.47591e-05
-2.09612e-05
-7.74531e-06
-6.93714e-05
0.000110861
-0.000116584
0.000180344
-0.000101913
0.000111501
-5.96823e-05
-6.25535e-05
-1.71595e-05
-0.000180597
9.98035e-06
-0.000192962
2.36269e-05
-9.8843e-05
3.54589e-05
-4.80419e-05
4.87739e-05
-7.27405e-06
6.16453e-05
4.80076e-05
5.85659e-05
9.23753e-05
2.65938e-05
8.71019e-05
-3.95157e-05
-7.26237e-06
8.94925e-05
-1.04233e-05
5.95903e-05
-9.81205e-06
-2.91371e-06
-4.79134e-06
-5.9276e-05
-1.26871e-05
-6.68633e-05
-4.50137e-05
2.45812e-05
-9.22538e-05
0.000158101
-0.000116608
0.000204698
-8.66313e-05
8.15242e-05
-3.71738e-05
-0.000112011
-3.41768e-06
-0.000214353
5.77584e-06
-0.000202156
1.64992e-05
-0.000109566
2.69998e-05
-5.85425e-05
3.73856e-05
-1.76599e-05
5.24439e-05
3.29493e-05
6.51697e-05
7.96495e-05
3.95096e-05
0.000112762
-6.12192e-09
2.16486e-06
8.73276e-05
4.52367e-06
5.72315e-05
4.82591e-06
-3.21594e-06
4.11756e-07
-5.48618e-05
-2.4513e-05
-4.19386e-05
-6.80517e-05
6.812e-05
-0.0001088
0.000198849
-0.000109829
0.000205726
-6.30566e-05
3.47521e-05
-1.63619e-05
-0.000158706
-3.11535e-06
-0.000227599
4.81616e-06
-0.000210087
2.13603e-05
-0.00012611
3.50371e-05
-7.22194e-05
3.86029e-05
-2.12257e-05
4.08772e-05
3.0675e-05
5.1627e-05
6.88996e-05
3.36457e-05
0.000130743
3.36396e-05
1.12317e-05
7.6096e-05
1.67326e-05
5.17306e-05
1.80754e-05
-4.55873e-06
3.76992e-06
-4.05564e-05
-3.46795e-05
-3.48915e-06
-8.22071e-05
0.000115648
-0.000113569
0.000230211
-0.000101528
0.000193685
-4.70547e-05
-1.97208e-05
-7.16907e-06
-0.000198591
-1.01944e-05
-0.000224574
7.39205e-07
-0.000221021
2.86717e-05
-0.000154043
5.44466e-05
-9.79944e-05
4.36145e-05
-1.03936e-05
6.76012e-06
6.75293e-05
1.87116e-05
5.69483e-05
2.57066e-05
0.000123748
5.93462e-05
1.42356e-05
6.18604e-05
2.60091e-05
3.99571e-05
2.79201e-05
-6.46968e-06
4.4689e-06
-1.71052e-05
-4.23463e-05
4.33261e-05
-8.91072e-05
0.000162408
-0.000108914
0.000250017
-8.42208e-05
0.000168993
-3.37357e-05
-7.0206e-05
-1.40202e-05
-0.000218307
-1.77901e-05
-0.000220804
-3.22883e-05
-0.000206523
-1.05569e-05
-0.000175774
1.11657e-05
-0.000119717
2.07394e-05
-1.99671e-05
-5.0242e-06
9.32931e-05
-1.13687e-05
6.32928e-05
-4.40308e-07
0.00011282
5.89059e-05
6.47091e-06
1.64806e-05
3.74362e-06
2.80566e-05
-3.82188e-06
3.26866e-05
-1.53594e-05
3.34702e-05
-2.71963e-05
2.68327e-05
-3.60493e-05
1.86953e-05
-4.01577e-05
1.3461e-05
-4.21359e-05
1.07206e-05
-4.4585e-05
9.65906e-06
-4.81535e-05
8.04904e-06
-4.97676e-05
2.81743e-06
-4.71385e-05
-4.93692e-06
-3.99963e-05
-1.36198e-05
-3.09848e-05
-1.97395e-05
-2.2568e-05
-2.17888e-05
-1.54617e-05
-2.06637e-05
-9.08499e-06
-1.90969e-05
-3.24073e-06
-1.80217e-05
1.66649e-06
-1.81898e-05
4.84642e-06
-1.92805e-05
7.0211e-06
-1.9012e-05
6.23023e-06
-1.8986e-05
-1.65298e-05
8.93617e-06
-6.36976e-05
8.01781e-05
-8.16651e-05
4.60242e-05
-9.50364e-05
4.60579e-05
-9.92138e-05
3.76476e-05
-9.71269e-05
2.47457e-05
-9.16661e-05
1.32346e-05
-8.67375e-05
8.53247e-06
-7.96723e-05
3.65539e-06
-7.11903e-05
1.17698e-06
-6.61912e-05
3.04997e-06
-6.36888e-05
3.15047e-07
-6.1831e-05
-6.79471e-06
-6.06549e-05
-1.47959e-05
-5.83963e-05
-2.1998e-05
-5.31673e-05
-2.70178e-05
-4.46853e-05
-2.91457e-05
-3.46122e-05
-2.91699e-05
-2.47053e-05
-2.79287e-05
-1.66967e-05
-2.61984e-05
-1.07912e-05
-2.5186e-05
-7.75374e-06
-2.20495e-05
-3.80719e-06
-2.29325e-05
-2.63988e-05
6.0619e-06
-0.000240096
0.000320274
-0.000313007
0.000118935
-0.000333236
6.62866e-05
-0.00032738
3.17913e-05
-0.000316739
1.4105e-05
-0.000310156
6.65148e-06
-0.000307062
5.43872e-06
-0.000287929
-1.54774e-05
-0.000261234
-2.55182e-05
-0.000239669
-1.85154e-05
-0.000226236
-1.31173e-05
-0.000222422
-1.06094e-05
-0.000227829
-9.38907e-06
-0.000224794
-2.50327e-05
-0.000206429
-4.53825e-05
-0.000177227
-5.83476e-05
-0.000144138
-6.22592e-05
-0.000111516
-6.05507e-05
-8.4706e-05
-5.30085e-05
-6.04621e-05
-4.94299e-05
-4.47236e-05
-3.7788e-05
-3.40705e-05
-3.35856e-05
-3.50333e-05
-2.54361e-05
-0.000132057
0.000452331
-0.000243583
0.000230461
-0.000321652
0.000144355
-0.000377434
8.75733e-05
-0.000409196
4.58668e-05
-0.00041968
1.71353e-05
-0.000414919
6.77557e-07
-0.000399005
-3.13906e-05
-0.000391342
-3.31813e-05
-0.000403488
-6.36965e-06
-0.000445715
2.91094e-05
-0.000458741
2.41659e-06
-0.00043006
-3.80697e-05
-0.000371321
-8.37721e-05
-0.000303062
-0.000113641
-0.000233848
-0.000127562
-0.000158249
-0.000137858
-7.66719e-05
-0.000142128
-1.09879e-05
-0.000118693
3.39217e-05
-9.43396e-05
3.16837e-05
-3.55499e-05
-1.15812e-05
9.67928e-06
4.64043e-05
-9.3019e-05
-6.75175e-05
0.000519848
-0.00014536
0.000308304
-0.000211698
0.000210693
-0.000266202
0.000142077
-0.000312305
9.19691e-05
-0.000363888
6.87181e-05
-0.000428512
6.53013e-05
-0.000507204
4.73015e-05
-0.000549152
8.7663e-06
-0.00053439
-2.11315e-05
-0.000486831
-1.84492e-05
-0.000413712
-7.0703e-05
-0.000350812
-0.00010097
-0.000310587
-0.000123997
-0.000288304
-0.000135924
-0.000273501
-0.000142365
-0.000259705
-0.000151654
-0.000238935
-0.000162897
-0.000202639
-0.000154989
-0.000170307
-0.000126672
-0.000146907
-5.89496e-05
-0.000139845
2.61717e-06
5.51352e-05
-0.000148576
-2.03323e-05
0.000540181
-6.50176e-05
0.000352989
-0.000103086
0.000248762
-0.000131269
0.00017026
-0.000152472
0.000113172
-0.000177826
9.40721e-05
-0.000217782
0.000105257
-0.000281588
0.000111108
-0.000343805
7.09836e-05
-0.000379471
1.45348e-05
-0.000372012
-2.59079e-05
-0.000338793
-0.000103923
-0.000317974
-0.000121788
-0.000305084
-0.000136887
-0.000290887
-0.000150121
-0.000277728
-0.000155523
-0.000271502
-0.00015788
-0.000276799
-0.0001576
-0.000278072
-0.000153716
-0.000262613
-0.00014213
-0.000249325
-7.22385e-05
-0.000231684
-1.50237e-05
3.42906e-05
-0.000210839
1.41786e-05
0.000526002
-1.26888e-05
0.000379856
-3.09863e-05
0.00026706
-4.23754e-05
0.000181648
-4.7724e-05
0.000118521
-5.61141e-05
0.000102462
-6.60059e-05
0.000115148
-9.18861e-05
0.000136988
-0.000145395
0.000124493
-0.000201531
7.06706e-05
-0.00022424
-3.19908e-06
-0.000247643
-8.05199e-05
-0.000285382
-8.40497e-05
-0.000300717
-0.000121552
-0.00029306
-0.000157778
-0.000281773
-0.00016681
-0.000270363
-0.00016929
-0.000269515
-0.000158449
-0.000278396
-0.000144834
-0.000293884
-0.000126643
-0.000275623
-9.04989e-05
-0.000267418
-2.32292e-05
2.31012e-05
-0.000256228
3.64318e-05
0.00048957
1.51506e-05
0.000401137
4.06714e-06
0.000278143
2.36237e-06
0.000183353
1.48405e-06
0.000119399
3.90841e-06
0.000100038
8.38171e-06
0.000110675
1.22044e-05
0.000133165
-8.46354e-06
0.000145161
-5.61806e-05
0.000118388
-0.000113804
5.44246e-05
-0.000180726
-1.35981e-05
-0.000221113
-4.3663e-05
-0.000255845
-8.68197e-05
-0.000283409
-0.000130215
-0.000291474
-0.000158746
-0.000281121
-0.000179642
-0.000274294
-0.000165276
-0.000274234
-0.000144894
-0.000285956
-0.000114922
-0.000291042
-8.54122e-05
-0.000263161
-5.11107e-05
-8.27367e-06
-0.000231786
5.17274e-05
0.000437843
3.33279e-05
0.000419537
2.15984e-05
0.000289873
1.93066e-05
0.000185645
2.11346e-05
0.000117571
2.7274e-05
9.38987e-05
3.5763e-05
0.000102186
4.83159e-05
0.000120611
5.65492e-05
0.000136928
4.18956e-05
0.000133041
-3.30127e-06
9.96216e-05
-7.12545e-05
5.43552e-05
-0.000132322
1.74049e-05
-0.000194443
-2.46994e-05
-0.000246796
-7.78607e-05
-0.000273346
-0.000132196
-0.00029041
-0.000162579
-0.000287273
-0.000168412
-0.000278067
-0.0001541
-0.000276349
-0.000116639
-0.000279513
-8.2248e-05
-0.000276295
-5.43291e-05
-3.37216e-05
-0.000250847
6.72505e-05
0.000370592
6.23901e-05
0.000424397
4.4889e-05
0.000307374
3.82473e-05
0.000192287
3.89336e-05
0.000116885
4.39108e-05
8.89214e-05
4.98307e-05
9.62663e-05
5.85017e-05
0.00011194
7.07723e-05
0.000124657
7.48404e-05
0.000128973
5.70154e-05
0.000117447
1.73134e-05
9.40572e-05
-3.43876e-05
6.91059e-05
-9.98023e-05
4.07153e-05
-0.000172518
-5.14539e-06
-0.000237008
-6.77049e-05
-0.000276325
-0.000123262
-0.00028968
-0.000155057
-0.000290752
-0.000153029
-0.000268762
-0.000138629
-0.000250635
-0.000100375
-0.000235444
-6.95199e-05
-4.60908e-05
-0.000223075
7.65611e-05
0.000294031
9.65097e-05
0.000404449
8.51418e-05
0.000318742
7.33074e-05
0.000204121
6.65156e-05
0.000123677
6.29036e-05
9.25331e-05
6.15877e-05
9.75822e-05
6.2794e-05
0.000110734
6.88966e-05
0.000118554
7.55569e-05
0.000122313
7.31228e-05
0.000119881
5.70123e-05
0.000110168
2.83143e-05
9.7804e-05
-1.48985e-05
8.39281e-05
-7.98806e-05
5.98369e-05
-0.000160568
1.29831e-05
-0.000233016
-5.08145e-05
-0.000279172
-0.000108901
-0.000291193
-0.000141008
-0.000283502
-0.00014632
-0.000254241
-0.000129637
-0.000201889
-0.000121872
-9.5072e-05
-0.000152908
6.79956e-05
0.000226036
0.000111548
0.000360896
0.000119275
0.000311015
0.000110475
0.000212921
9.63281e-05
0.000137824
8.22637e-05
0.000106597
7.25631e-05
0.000107283
6.73283e-05
0.000115968
6.64516e-05
0.000119431
6.89955e-05
0.000119769
7.02652e-05
0.000118611
6.58956e-05
0.000114538
5.42784e-05
0.000109421
3.26273e-05
0.000105579
-6.05434e-06
9.85187e-05
-6.91291e-05
7.60579e-05
-0.000150324
3.03803e-05
-0.000230393
-2.88313e-05
-0.000291781
-7.96199e-05
-0.000327396
-0.000110704
-0.000321031
-0.000136002
-0.000292962
-0.000149941
-0.000142616
-0.000245418
4.1908e-05
0.000184128
9.67823e-05
0.000306022
0.000124487
0.000283311
0.000125729
0.000211678
0.000111241
0.000152311
9.28496e-05
0.000124989
7.91522e-05
0.00012098
7.11833e-05
0.000123937
6.67892e-05
0.000123825
6.5333e-05
0.000121225
6.53346e-05
0.00011861
6.41555e-05
0.000115717
6.012e-05
0.000113457
5.16618e-05
0.000114037
3.41531e-05
0.000116027
-7.80684e-07
0.000110992
-5.78225e-05
8.74223e-05
-0.000130484
4.38304e-05
-0.000206269
-3.83454e-06
-0.000278405
-3.85687e-05
-0.000351167
-6.32406e-05
-0.000406936
-9.41721e-05
-0.000121663
-0.000427889
1.41153e-05
0.000170012
6.63005e-05
0.000253837
0.000103834
0.000245777
0.00011451
0.000201002
0.000105748
0.000161073
9.09211e-05
0.000139816
7.93236e-05
0.000132577
7.25234e-05
0.000130737
6.82064e-05
0.000128142
6.53798e-05
0.000124052
6.39059e-05
0.000120083
6.26832e-05
0.000116939
6.06179e-05
0.000115522
5.73341e-05
0.000117321
5.10094e-05
0.000122352
3.54472e-05
0.000126554
7.87456e-07
0.000122082
-5.44865e-05
9.91044e-05
-0.000113988
5.5667e-05
-0.000173786
2.12295e-05
-0.000248406
1.13797e-05
-0.00032733
-1.52489e-05
-7.9358e-05
-0.000369635
-1.71842e-07
0.000170184
3.98135e-05
0.000213851
7.53079e-05
0.000210283
9.01209e-05
0.000186189
8.85111e-05
0.000162682
8.10895e-05
0.000147237
7.48279e-05
0.000138839
7.12271e-05
0.000134338
6.88694e-05
0.0001305
6.68192e-05
0.000126102
6.51841e-05
0.000121719
6.37451e-05
0.000118378
6.20314e-05
0.000117236
6.01423e-05
0.00011921
5.80532e-05
0.000124441
5.30995e-05
0.000131508
3.80665e-05
0.000137115
2.37259e-06
0.000134798
-4.97339e-05
0.000107774
-9.11471e-05
6.26427e-05
-0.00012376
4.39926e-05
-0.000185058
4.60495e-05
-1.92349e-05
-0.000245181
-1.2518e-06
0.000171436
2.50326e-05
0.000187567
5.22515e-05
0.000183064
6.67452e-05
0.000171696
7.0516e-05
0.000158912
6.97999e-05
0.000147953
6.86317e-05
0.000140007
6.82499e-05
0.00013472
6.81677e-05
0.000130582
6.77767e-05
0.000126493
6.7058e-05
0.000122437
6.61118e-05
0.000119324
6.49852e-05
0.000118362
6.39733e-05
0.000120222
6.36458e-05
0.000124769
6.37696e-05
0.000131384
6.16645e-05
0.000139221
4.85154e-05
0.000147948
1.1977e-05
0.000144312
-2.58651e-05
0.000100485
-2.82627e-05
4.63902e-05
-3.03461e-05
4.81328e-05
3.28401e-05
-8.24211e-05
3.33496e-06
0.000168101
1.94757e-05
0.000171426
3.81723e-05
0.000164367
5.05666e-05
0.000159302
5.70853e-05
0.000152393
6.0439e-05
0.0001446
6.25907e-05
0.000137856
6.45047e-05
0.000132806
6.62392e-05
0.000128848
6.74943e-05
0.000125238
6.8128e-05
0.000121804
6.82758e-05
0.000119176
6.82977e-05
0.000118341
6.86715e-05
0.000119849
6.9982e-05
0.000123459
7.27699e-05
0.000128597
7.71338e-05
0.000134857
8.02402e-05
0.000144841
6.7814e-05
0.000156738
2.99001e-05
0.000138399
9.40023e-06
6.68901e-05
3.62161e-05
2.13169e-05
2.42841e-05
4.47722e-05
6.961e-06
0.00016114
1.8005e-05
0.000160382
3.08301e-05
0.000151542
4.10415e-05
0.00014909
4.83101e-05
0.000145124
5.34364e-05
0.000139474
5.72855e-05
0.000134006
6.05522e-05
0.000129539
6.34911e-05
0.000125909
6.60057e-05
0.000122723
6.79493e-05
0.00011986
6.94305e-05
0.000117695
7.09041e-05
0.000116867
7.29652e-05
0.000117788
7.61324e-05
0.000120291
8.0916e-05
0.000123813
8.79901e-05
0.000127783
9.87327e-05
0.000134099
0.000106552
0.000148919
8.77083e-05
0.000157242
4.55495e-05
0.000109049
2.90809e-05
3.77854e-05
1.16697e-05
4.16953e-05
8.08031e-06
0.00015306
1.72328e-05
0.00015123
2.68754e-05
0.000141899
3.54351e-05
0.000140531
4.24984e-05
0.000138061
4.81447e-05
0.000133827
5.27368e-05
0.000129414
5.67302e-05
0.000125546
6.03922e-05
0.000122247
6.37479e-05
0.000119368
6.67341e-05
0.000116874
6.94615e-05
0.000114968
7.23447e-05
0.000113984
7.59701e-05
0.000114162
8.08306e-05
0.000115431
8.73106e-05
0.000117333
9.58392e-05
0.000119254
0.000108585
0.000121353
0.000127706
0.000129799
0.000137612
0.000147336
0.000112741
0.00013392
6.87828e-05
8.17438e-05
3.18657e-05
4.85868e-05
7.8619e-06
0.000145198
1.61642e-05
0.000142928
2.42113e-05
0.000133852
3.16639e-05
0.000133078
3.82775e-05
0.000131447
4.39578e-05
0.000128147
4.8851e-05
0.000124521
5.32328e-05
0.000121164
5.73218e-05
0.000118158
6.12101e-05
0.00011548
6.49346e-05
0.000113149
6.8633e-05
0.000111269
7.264e-05
0.000109977
7.74429e-05
0.000109359
8.35053e-05
0.000109369
9.11667e-05
0.000109672
0.000100691
0.00010973
0.00011326
0.000108783
0.000133815
0.000109245
0.000161375
0.000119776
0.000172504
0.00012279
0.000156259
9.79883e-05
5.32174e-05
0.000134908
7.28111e-06
0.000137917
1.49333e-05
0.000135275
2.2063e-05
0.000126722
2.87639e-05
0.000126377
3.49502e-05
0.000125261
4.05172e-05
0.00012258
4.55181e-05
0.00011952
5.01134e-05
0.000116569
5.44663e-05
0.000113805
5.86961e-05
0.00011125
6.29059e-05
0.00010894
6.72539e-05
0.000106921
7.20024e-05
0.000105228
7.75131e-05
0.000103849
8.41749e-05
0.000102707
9.22926e-05
0.000101554
0.000102077
9.99457e-05
0.00011379
9.707e-05
0.000130386
9.26487e-05
0.000157961
9.22005e-05
0.000187629
9.31223e-05
0.000204783
8.08352e-05
4.93676e-05
0.000208632
6.71249e-06
0.000131204
1.37609e-05
0.000128227
2.02357e-05
0.000120248
2.63823e-05
0.000120231
3.22024e-05
0.000119441
3.7608e-05
0.000117174
4.26137e-05
0.000114514
4.7315e-05
0.000111867
5.183e-05
0.00010929
5.62767e-05
0.000106803
6.07793e-05
0.000104437
6.54933e-05
0.000102207
7.06212e-05
0.0001001
7.6413e-05
9.80567e-05
8.31488e-05
9.59709e-05
9.10637e-05
9.36396e-05
0.000100302
9.07073e-05
0.000110772
8.66002e-05
0.000123029
8.03917e-05
0.00014169
7.35401e-05
0.00016747
6.73418e-05
0.000191228
5.70772e-05
3.54286e-05
0.000205167
6.20693e-06
0.000124998
1.27044e-05
0.000121729
1.86551e-05
0.000114297
2.43612e-05
0.000114525
2.98588e-05
0.000113944
3.50759e-05
0.000111957
4.00143e-05
0.000109576
4.47351e-05
0.000107147
4.93249e-05
0.0001047
5.38839e-05
0.000102244
5.85268e-05
9.9794e-05
6.33859e-05
9.73482e-05
6.86127e-05
9.48734e-05
7.43733e-05
9.2296e-05
8.08439e-05
8.95004e-05
8.81738e-05
8.63098e-05
9.64295e-05
8.24517e-05
0.000105474
7.75557e-05
0.000114899
7.0967e-05
0.00012594
6.24984e-05
0.000140543
5.27397e-05
0.000156304
4.1316e-05
2.46181e-05
0.000167114
5.74999e-06
0.000119248
1.17511e-05
0.000115728
1.72608e-05
0.000108787
2.25957e-05
0.00010919
2.77972e-05
0.000108742
3.28057e-05
0.000106948
3.76201e-05
0.000104761
4.22841e-05
0.000102483
4.68621e-05
0.000100122
5.14332e-05
9.76729e-05
5.60887e-05
9.51383e-05
6.09304e-05
9.25063e-05
6.60667e-05
8.97371e-05
7.16053e-05
8.67575e-05
7.76468e-05
8.3459e-05
8.42669e-05
7.96897e-05
9.14744e-05
7.52442e-05
9.9158e-05
6.98721e-05
0.000106901
6.3224e-05
0.000114456
5.49431e-05
0.000122331
4.4865e-05
0.000130405
3.32418e-05
1.90519e-05
0.000135972
5.33344e-06
0.000113914
1.0885e-05
0.000110177
1.60066e-05
0.000103666
2.10115e-05
0.000104185
2.59318e-05
0.000103822
3.07163e-05
0.000102164
3.53637e-05
0.000100114
3.99068e-05
9.79393e-05
4.43948e-05
9.56341e-05
4.88868e-05
9.31809e-05
5.34509e-05
9.05743e-05
5.81598e-05
8.77974e-05
6.30872e-05
8.48097e-05
6.82999e-05
8.15448e-05
7.38503e-05
7.79085e-05
7.97634e-05
7.37766e-05
8.60136e-05
6.89939e-05
9.2504e-05
6.33818e-05
9.89855e-05
5.67424e-05
0.000105055
4.88734e-05
0.000110397
3.95234e-05
0.000114798
2.88409e-05
1.6639e-05
0.000117211
4.95195e-06
0.000108962
1.00939e-05
0.000105035
1.48616e-05
9.88979e-05
1.95591e-05
9.94871e-05
2.42058e-05
9.91748e-05
2.87546e-05
9.76147e-05
3.32031e-05
9.56651e-05
3.75769e-05
9.35655e-05
4.19127e-05
9.12982e-05
4.62538e-05
8.88397e-05
5.06485e-05
8.61796e-05
5.51463e-05
8.32995e-05
5.9794e-05
8.0162e-05
6.46291e-05
7.67096e-05
6.9673e-05
7.28646e-05
7.49197e-05
6.85298e-05
8.03233e-05
6.35903e-05
8.57856e-05
5.79195e-05
9.11364e-05
5.13917e-05
9.60971e-05
4.39127e-05
0.000100275
3.53456e-05
0.000103336
2.57803e-05
1.51682e-05
0.000104806
4.59981e-06
0.000104362
9.36665e-06
0.000100268
1.38039e-05
9.44605e-05
1.8206e-05
9.50849e-05
2.25822e-05
9.47984e-05
2.68861e-05
9.33106e-05
3.11134e-05
9.14377e-05
3.52833e-05
8.93955e-05
3.94232e-05
8.71584e-05
4.35632e-05
8.46997e-05
4.77362e-05
8.20065e-05
5.1974e-05
7.90616e-05
5.63035e-05
7.58325e-05
6.07414e-05
7.22717e-05
6.52884e-05
6.83175e-05
6.99216e-05
6.38966e-05
7.45851e-05
5.89268e-05
7.91818e-05
5.33228e-05
8.35694e-05
4.70041e-05
8.7557e-05
3.99251e-05
9.08711e-05
3.20315e-05
9.32394e-05
2.3412e-05
1.40673e-05
9.43403e-05
4.27277e-06
0.00010009
8.69321e-06
9.58472e-05
1.28174e-05
9.03362e-05
1.69312e-05
9.09709e-05
2.1038e-05
9.06915e-05
2.50899e-05
8.92587e-05
2.90801e-05
8.74474e-05
3.30231e-05
8.54525e-05
3.69379e-05
8.32436e-05
4.08449e-05
8.07926e-05
4.47646e-05
7.80865e-05
4.87159e-05
7.51102e-05
5.27111e-05
7.18371e-05
5.67532e-05
6.82296e-05
6.08302e-05
6.42405e-05
6.49109e-05
5.9816e-05
6.89382e-05
5.48996e-05
7.28245e-05
4.94367e-05
7.64487e-05
4.33799e-05
7.96642e-05
3.67096e-05
8.22825e-05
2.94132e-05
8.41102e-05
2.15845e-05
1.32508e-05
8.49268e-05
3.96898e-06
9.61205e-05
8.0654e-06
9.17507e-05
1.18914e-05
8.65101e-05
1.57224e-05
8.71399e-05
1.956e-05
8.68539e-05
2.33548e-05
8.54637e-05
2.70974e-05
8.37047e-05
3.0798e-05
8.17518e-05
3.44695e-05
7.9572e-05
3.81243e-05
7.71376e-05
4.17739e-05
7.44367e-05
4.54273e-05
7.14567e-05
4.90872e-05
6.81771e-05
5.27476e-05
6.45692e-05
5.639e-05
6.05981e-05
5.99802e-05
5.62259e-05
6.34649e-05
5.14149e-05
6.67688e-05
4.61328e-05
6.97924e-05
4.03562e-05
7.24187e-05
3.40832e-05
7.45097e-05
2.73223e-05
7.59341e-05
2.01603e-05
1.26304e-05
7.65547e-05
3.68895e-06
9.24314e-05
7.47686e-06
8.79627e-05
1.10184e-05
8.29685e-05
1.45722e-05
8.35861e-05
1.81416e-05
8.32844e-05
2.1677e-05
8.19282e-05
2.51656e-05
8.0216e-05
2.86146e-05
7.83026e-05
3.20319e-05
7.61544e-05
3.54241e-05
7.37451e-05
3.87961e-05
7.10646e-05
4.21498e-05
6.8103e-05
4.54817e-05
6.48452e-05
4.87804e-05
6.12703e-05
5.20247e-05
5.73538e-05
5.51808e-05
5.30698e-05
5.82009e-05
4.83948e-05
6.10215e-05
4.33122e-05
6.3563e-05
3.78146e-05
6.57343e-05
3.1912e-05
6.74338e-05
2.56228e-05
6.85728e-05
1.90214e-05
1.2139e-05
6.90643e-05
3.43553e-06
8.89959e-05
6.92251e-06
8.44757e-05
1.01922e-05
7.96988e-05
1.34754e-05
8.03029e-05
1.67801e-05
7.99795e-05
2.00561e-05
7.86521e-05
2.32885e-05
7.69834e-05
2.64818e-05
7.51091e-05
2.96401e-05
7.29958e-05
3.27658e-05
7.06193e-05
3.58589e-05
6.79714e-05
3.89168e-05
6.50451e-05
4.1932e-05
6.18299e-05
4.48907e-05
5.83114e-05
4.77712e-05
5.44733e-05
5.05418e-05
5.02991e-05
5.31608e-05
4.57758e-05
5.55758e-05
4.08971e-05
5.77241e-05
3.56663e-05
5.9536e-05
3.01001e-05
6.09373e-05
2.42215e-05
6.18668e-05
1.80919e-05
1.17381e-05
6.22676e-05
3.21358e-06
8.57823e-05
6.39891e-06
8.12903e-05
9.40567e-06
7.6692e-05
1.24266e-05
7.72818e-05
1.54729e-05
7.6933e-05
1.84928e-05
7.5632e-05
2.14705e-05
7.40055e-05
2.44085e-05
7.21709e-05
2.73081e-05
7.00961e-05
3.01684e-05
6.77588e-05
3.29867e-05
6.5153e-05
3.5757e-05
6.22746e-05
3.847e-05
5.91166e-05
4.11112e-05
5.567e-05
4.36596e-05
5.19247e-05
4.60871e-05
4.78715e-05
4.83582e-05
4.35047e-05
5.04304e-05
3.8825e-05
5.22548e-05
3.3842e-05
5.3779e-05
2.85759e-05
5.49495e-05
2.30511e-05
5.57245e-05
1.73169e-05
1.13938e-05
5.60688e-05
3.02737e-06
8.27549e-05
5.90547e-06
7.84122e-05
8.65163e-06
7.39457e-05
1.14198e-05
7.45135e-05
1.42162e-05
7.41365e-05
1.69856e-05
7.28624e-05
1.97133e-05
7.12777e-05
2.24003e-05
6.94838e-05
2.50459e-05
6.74504e-05
2.76472e-05
6.51573e-05
3.01994e-05
6.26007e-05
3.2695e-05
5.97788e-05
3.51237e-05
5.66877e-05
3.74714e-05
5.33222e-05
3.9719e-05
4.9677e-05
4.18425e-05
4.57481e-05
4.38122e-05
4.1535e-05
4.55944e-05
3.70429e-05
4.71523e-05
3.22842e-05
4.84478e-05
2.72804e-05
4.94436e-05
2.20551e-05
5.01133e-05
1.66471e-05
1.10684e-05
5.04386e-05
2.87576e-06
7.98791e-05
5.44452e-06
7.58434e-05
7.92565e-06
7.14645e-05
1.04488e-05
7.19903e-05
1.30034e-05
7.15818e-05
1.5529e-05
7.03368e-05
1.8013e-05
6.87935e-05
2.04556e-05
6.70411e-05
2.28551e-05
6.50508e-05
2.52075e-05
6.28048e-05
2.75065e-05
6.03016e-05
2.97437e-05
5.75415e-05
3.19088e-05
5.45224e-05
3.39886e-05
5.12423e-05
3.59665e-05
4.76991e-05
3.78222e-05
4.38926e-05
3.95318e-05
3.98255e-05
4.10694e-05
3.55053e-05
4.24082e-05
3.09453e-05
4.35224e-05
2.6166e-05
4.43884e-05
2.11888e-05
4.49922e-05
1.60431e-05
1.07317e-05
4.53286e-05
2.74936e-06
7.71297e-05
5.01763e-06
7.35751e-05
7.2258e-06
6.92563e-05
9.50681e-06
6.97092e-05
1.18243e-05
6.92643e-05
1.41111e-05
6.80499e-05
1.6357e-05
6.65475e-05
1.85618e-05
6.48362e-05
2.07236e-05
6.28888e-05
2.28377e-05
6.06906e-05
2.48965e-05
5.82427e-05
2.68916e-05
5.55463e-05
2.88129e-05
5.26011e-05
3.06481e-05
4.9407e-05
3.23829e-05
4.59643e-05
3.40003e-05
4.22752e-05
3.54814e-05
3.83443e-05
3.68067e-05
3.41799e-05
3.79576e-05
2.97942e-05
3.89181e-05
2.52053e-05
3.96755e-05
2.04312e-05
4.02251e-05
1.54932e-05
1.03865e-05
4.05701e-05
2.63285e-06
7.44969e-05
4.62087e-06
7.1587e-05
6.54854e-06
6.73287e-05
8.58423e-06
6.76734e-05
1.06641e-05
6.71843e-05
1.27131e-05
6.60008e-05
1.47229e-05
6.45376e-05
1.66933e-05
6.28657e-05
1.86225e-05
6.09595e-05
2.05047e-05
5.88084e-05
2.23319e-05
5.64155e-05
2.40953e-05
5.37828e-05
2.57851e-05
5.09113e-05
2.73897e-05
4.78022e-05
2.88964e-05
4.44575e-05
3.02909e-05
4.08806e-05
3.15578e-05
3.70772e-05
3.26824e-05
3.30551e-05
3.36519e-05
2.88246e-05
3.44567e-05
2.44003e-05
3.50916e-05
1.9796e-05
3.5557e-05
1.50277e-05
1.00856e-05
3.58578e-05
2.51013e-06
7.19868e-05
4.24442e-06
6.98527e-05
5.88583e-06
6.56873e-05
7.66827e-06
6.58908e-05
9.50458e-06
6.5348e-05
1.13118e-05
6.41936e-05
1.30826e-05
6.27668e-05
1.48165e-05
6.11317e-05
1.65119e-05
5.92642e-05
1.81617e-05
5.71587e-05
1.97572e-05
5.482e-05
2.12895e-05
5.22505e-05
2.27486e-05
4.94521e-05
2.41235e-05
4.64272e-05
2.54021e-05
4.31788e-05
2.65719e-05
3.97107e-05
2.76198e-05
3.60292e-05
2.8534e-05
3.21408e-05
2.93048e-05
2.80536e-05
2.99265e-05
2.37786e-05
3.03967e-05
1.93257e-05
3.07171e-05
1.47072e-05
9.91275e-06
3.08899e-05
2.36742e-06
6.96194e-05
3.8728e-06
6.83473e-05
5.22579e-06
6.43342e-05
6.74635e-06
6.43701e-05
8.32918e-06
6.37651e-05
9.88632e-06
6.26365e-05
1.14111e-05
6.1242e-05
1.29021e-05
5.96408e-05
1.43573e-05
5.78091e-05
1.57677e-05
5.57483e-05
1.71246e-05
5.3463e-05
1.84185e-05
5.09565e-05