/*--------------------------------*- C++ -*----------------------------------*\
| =========                 |                                                 |
| \\      /  F ield         | OpenFOAM: The Open Source CFD Toolbox           |
|  \\    /   O peration     | Version:  5.x                                   |
|   \\  /    A nd           | Web:      www.OpenFOAM.org                      |
|    \\/     M anipulation  |                                                 |
\*---------------------------------------------------------------------------*/
FoamFile
{
    version     2.0;
    format      ascii;
    class       volVectorField;
    location    "0.8";
    object      U;
}
// * * * * * * * * * * * * * * * * * * * * * * * * * * * * * * * * * * * * * //

dimensions      [0 1 -1 0 0 0 0];

internalField   nonuniform List<vector> 
2268
(
(-0.0231822 0.0104126 0)
(-0.0797369 0.0139453 0)
(-0.135994 0.0132486 0)
(-0.190887 0.0130887 0)
(-0.24252 0.010515 0)
(-0.267557 0.00283866 0)
(-0.254217 -0.00437419 0)
(-0.225612 -0.00611564 0)
(-0.201394 -0.00394318 0)
(-0.189132 -0.00122079 0)
(-0.186176 0.000610303 0)
(-0.188512 0.00199972 0)
(-0.194517 0.00300628 0)
(-0.203252 0.00270762 0)
(-0.211135 -0.00190975 0)
(-0.204852 -0.00970073 0)
(-0.192366 -0.00573829 0)
(-0.223517 0.0180422 0)
(-0.307466 0.0219838 0)
(-0.342439 0.00291641 0)
(-0.272742 -0.0235177 0)
(-0.16545 -0.0378209 0)
(-0.054946 -0.031636 0)
(-0.0424035 0.0406885 0)
(-0.114951 0.042886 0)
(-0.174808 0.038696 0)
(-0.230943 0.0362592 0)
(-0.273199 0.0263067 0)
(-0.282482 0.00439557 0)
(-0.26573 -0.0158578 0)
(-0.233244 -0.0212134 0)
(-0.204865 -0.0138369 0)
(-0.190026 -0.00536758 0)
(-0.185248 -0.000270851 0)
(-0.185137 0.00259943 0)
(-0.185695 0.00452987 0)
(-0.186865 0.00566433 0)
(-0.191167 0.00406801 0)
(-0.203946 0.00122526 0)
(-0.235586 0.012682 0)
(-0.283938 0.0371792 0)
(-0.305656 0.0249283 0)
(-0.254976 -0.0163668 0)
(-0.183429 -0.0594766 0)
(-0.111668 -0.0858288 0)
(-0.0359394 -0.0788969 0)
(-0.0431256 0.0765948 0)
(-0.105518 0.0733301 0)
(-0.160161 0.0648576 0)
(-0.218978 0.0597527 0)
(-0.267884 0.0412185 0)
(-0.284923 0.00450367 0)
(-0.270052 -0.0297703 0)
(-0.241301 -0.0386427 0)
(-0.214218 -0.0253751 0)
(-0.197634 -0.010185 0)
(-0.191507 -0.00190555 0)
(-0.188007 0.00111727 0)
(-0.181565 0.00229523 0)
(-0.170589 0.00335339 0)
(-0.158601 0.00550507 0)
(-0.153391 0.0118647 0)
(-0.160401 0.0277984 0)
(-0.174388 0.0400784 0)
(-0.16136 0.0105841 0)
(-0.109947 -0.0429235 0)
(-0.0676093 -0.081709 0)
(-0.0411557 -0.106047 0)
(-0.00465757 -0.100045 0)
(-0.0355797 0.108274 0)
(-0.0845552 0.100661 0)
(-0.13635 0.0899838 0)
(-0.19395 0.0835958 0)
(-0.240756 0.0568627 0)
(-0.254494 0.00599645 0)
(-0.243809 -0.0403241 0)
(-0.232184 -0.0516481 0)
(-0.220399 -0.0348237 0)
(-0.208696 -0.0149144 0)
(-0.202987 -0.00395457 0)
(-0.200211 -0.00145491 0)
(-0.193858 -0.00289615 0)
(-0.180486 -0.0048112 0)
(-0.160266 -0.00370987 0)
(-0.134887 0.00502177 0)
(-0.104361 0.0226517 0)
(-0.0701215 0.0312389 0)
(-0.0311183 0.00104519 0)
(0.00602639 -0.0484545 0)
(0.0209333 -0.0822812 0)
(0.00212657 -0.107767 0)
(0.0178014 -0.0981566 0)
(-0.0242654 0.132672 0)
(-0.0579274 0.124825 0)
(-0.102857 0.114202 0)
(-0.149227 0.1061 0)
(-0.182819 0.0726016 0)
(-0.185291 0.011986 0)
(-0.181974 -0.0411865 0)
(-0.19899 -0.0518742 0)
(-0.216049 -0.0354805 0)
(-0.219545 -0.0165935 0)
(-0.21727 -0.00515977 0)
(-0.214282 -0.00301876 0)
(-0.207336 -0.0070866 0)
(-0.193088 -0.0129601 0)
(-0.171217 -0.0160599 0)
(-0.141361 -0.0117957 0)
(-0.0996416 -0.000391899 0)
(-0.0470311 0.00381146 0)
(0.00218977 -0.0215832 0)
(0.0272995 -0.0612584 0)
(0.0381455 -0.0817752 0)
(0.00687019 -0.104341 0)
(0.0248494 -0.0920545 0)
(-0.00983435 0.146806 0)
(-0.0225774 0.139968 0)
(-0.0558914 0.129188 0)
(-0.0870768 0.117395 0)
(-0.103866 0.0767341 0)
(-0.0948486 0.0123864 0)
(-0.103188 -0.0317313 0)
(-0.15415 -0.0374609 0)
(-0.202929 -0.023701 0)
(-0.227255 -0.0119879 0)
(-0.232631 -0.00566348 0)
(-0.229876 -0.00664575 0)
(-0.221144 -0.0136854 0)
(-0.20398 -0.0226704 0)
(-0.178698 -0.0286227 0)
(-0.147235 -0.0279447 0)
(-0.109106 -0.0228587 0)
(-0.0639474 -0.0229412 0)
(-0.0201747 -0.0398441 0)
(-0.000727005 -0.0697488 0)
(0.0161827 -0.0814521 0)
(-0.00661814 -0.103204 0)
(0.0218329 -0.0887151 0)
(0.00571314 0.149053 0)
(0.0119664 0.152228 0)
(-0.00438395 0.146024 0)
(-0.0168435 0.131476 0)
(-0.0121452 0.0846746 0)
(0.00365128 0.021152 0)
(-0.0355351 -0.0153478 0)
(-0.121985 -0.0130584 0)
(-0.191465 -0.00276303 0)
(-0.23294 -0.00142525 0)
(-0.248639 -0.00269554 0)
(-0.247527 -0.0077016 0)
(-0.236411 -0.0186986 0)
(-0.215085 -0.0321702 0)
(-0.184048 -0.0418504 0)
(-0.147678 -0.0436778 0)
(-0.109179 -0.0403856 0)
(-0.0695485 -0.0399216 0)
(-0.0338634 -0.0518514 0)
(-0.0153353 -0.0757445 0)
(0.00317739 -0.083023 0)
(-0.00414396 -0.105714 0)
(0.0179289 -0.0826895 0)
(0.0174945 0.134021 0)
(0.0543343 0.145856 0)
(0.0737701 0.135754 0)
(0.0866639 0.11494 0)
(0.0983542 0.0699618 0)
(0.0718247 0.029562 0)
(-0.0276737 0.0289447 0)
(-0.128496 0.0352238 0)
(-0.19176 0.0312848 0)
(-0.233781 0.0173217 0)
(-0.257393 0.00146782 0)
(-0.262484 -0.0135204 0)
(-0.249542 -0.0305314 0)
(-0.218101 -0.0490029 0)
(-0.174665 -0.0621403 0)
(-0.132255 -0.0643064 0)
(-0.0933141 -0.0606227 0)
(-0.0566436 -0.0587025 0)
(-0.0230717 -0.0665605 0)
(-0.000814039 -0.0845821 0)
(0.015861 -0.0888239 0)
(0.0192729 -0.106775 0)
(0.0250085 -0.0746963 0)
(-0.046377 0.0356486 0)
(-0.387626 0.0641691 0)
(-0.586248 0.0182153 0)
(-0.458573 -0.0461413 0)
(-0.185148 -0.0796838 0)
(0.086658 -0.0409596 0)
(0.147763 0.0185108 0)
(0.0159645 0.0103154 0)
(-0.367842 0.120873 0)
(-1.24044 0.151831 0)
(-1.15452 -0.0426497 0)
(-0.304523 -0.197208 0)
(0.214488 -0.084907 0)
(0.47149 0.0333615 0)
(0.430447 0.0842427 0)
(0.189276 0.0064126 0)
(-0.056637 0.0778183 0)
(-0.213472 0.1319 0)
(-0.142516 -0.00696412 0)
(-0.177361 0.14773 0)
(-0.509618 0.162143 0)
(-0.516424 0.0264609 0)
(-0.362458 -0.127492 0)
(-0.108559 -0.216073 0)
(0.0982827 -0.116176 0)
(0.119475 0.0496056 0)
(-0.270302 0.21135 0)
(-1.20135 0.408677 0)
(-1.57217 0.174502 0)
(-0.695031 -0.329965 0)
(-0.0894398 -0.532006 0)
(0.306849 -0.27764 0)
(0.58556 -0.0972861 0)
(0.749313 0.0870089 0)
(0.665648 0.202156 0)
(-0.121256 0.132036 0)
(-0.471661 -0.0456566 0)
(-0.34234 -0.217472 0)
(-0.190595 0.265482 0)
(-0.40426 0.220937 0)
(-0.353661 -0.00115242 0)
(-0.266473 -0.20138 0)
(-0.0532176 -0.319422 0)
(0.0153368 -0.1556 0)
(-0.0315585 0.178836 0)
(-0.742107 0.501613 0)
(-1.523 0.559519 0)
(-1.23317 -0.0233775 0)
(-0.464463 -0.591028 0)
(-0.0366843 -0.740657 0)
(0.220438 -0.382664 0)
(0.45488 -0.14881 0)
(0.56673 0.0584046 0)
(0.809591 0.300899 0)
(0.343782 0.372339 0)
(0.055217 0.202814 0)
(-0.173455 -0.381085 0)
(-0.150563 0.361706 0)
(-0.262902 0.260991 0)
(-0.233359 -0.00495225 0)
(-0.156212 -0.251509 0)
(-0.0284214 -0.370039 0)
(-0.115733 -0.107259 0)
(-0.361306 0.412857 0)
(-1.16325 0.77745 0)
(-1.58702 0.626107 0)
(-0.883622 -0.180364 0)
(-0.331514 -0.762148 0)
(-0.00351054 -0.896452 0)
(0.172205 -0.459206 0)
(0.333075 -0.215344 0)
(0.466965 -0.00242292 0)
(0.691425 0.272054 0)
(0.692163 0.492341 0)
(0.625925 0.411883 0)
(0.0618947 -0.202504 0)
(-0.0919361 0.425625 0)
(-0.117928 0.280745 0)
(-0.143682 -0.0209523 0)
(-0.0384851 -0.286998 0)
(-0.0390908 -0.357611 0)
(-0.309932 0.0270518 0)
(-0.712998 0.661089 0)
(-1.38156 0.949716 0)
(-1.37699 0.473872 0)
(-0.621612 -0.392645 0)
(-0.0451164 -0.964767 0)
(-0.0470333 -0.966845 0)
(0.129654 -0.554338 0)
(0.24702 -0.317644 0)
(0.370717 -0.105145 0)
(0.482544 0.153784 0)
(0.691034 0.420854 0)
(0.803364 0.493523 0)
(0.183799 -0.0861817 0)
(-0.0270658 0.447614 0)
(0.047235 0.290565 0)
(0.0431569 -0.0145635 0)
(0.101352 -0.28033 0)
(-0.0765032 -0.264655 0)
(-0.539662 0.233701 0)
(-1.02127 0.892031 0)
(-1.48746 1.03109 0)
(-1.09881 0.279205 0)
(-0.295493 -0.660861 0)
(0.0210492 -1.08871 0)
(-0.131771 -1.01329 0)
(0.189072 -0.599156 0)
(0.35923 -0.324336 0)
(0.445927 -0.117345 0)
(0.411022 0.108287 0)
(0.498042 0.309318 0)
(0.731373 0.563236 0)
(0.130951 0.0704391 0)
(0.030626 0.411287 0)
(0.173928 0.285679 0)
(0.214248 -0.00460803 0)
(0.237949 -0.221778 0)
(-0.109564 -0.10653 0)
(-0.718552 0.455279 0)
(-1.19181 1.04929 0)
(-1.45241 0.993266 0)
(-0.851926 0.104599 0)
(-0.107094 -0.875026 0)
(-0.061304 -1.10845 0)
(-0.2365 -1.06958 0)
(0.218399 -0.632064 0)
(0.500416 -0.324489 0)
(0.70624 0.0253891 0)
(0.16086 0.249424 0)
(0.0143917 0.299679 0)
(0.562257 0.619621 0)
(0.146124 0.268668 0)
(0.0544686 0.339067 0)
(0.219525 0.23658 0)
(0.377276 -0.0265358 0)
(0.287232 -0.143499 0)
(-0.136987 0.0813381 0)
(-0.840371 0.680704 0)
(-1.26211 1.1725 0)
(-1.28973 0.871226 0)
(-0.524587 -0.266025 0)
(-0.155148 -1.05105 0)
(-0.214859 -1.09152 0)
(-0.317162 -1.06069 0)
(-0.258685 -0.797765 0)
(-0.0455365 -0.56294 0)
(0.232446 -0.113189 0)
(0.193123 0.430205 0)
(-0.412616 0.242553 0)
(0.300901 0.6543 0)
(-0.246483 0.398375 0)
(0.0276852 0.0751211 0)
(0.0335506 0.101352 0)
(0.00438181 0.128107 0)
(-0.0452553 0.133662 0)
(-0.115914 0.115635 0)
(-0.175548 0.0958564 0)
(-0.206071 0.0782875 0)
(-0.220834 0.0595902 0)
(-0.231191 0.048982 0)
(-0.248069 0.0384322 0)
(-0.26441 0.0178553 0)
(-0.265723 -0.0143456 0)
(-0.238619 -0.0516208 0)
(-0.190929 -0.0836273 0)
(-0.140919 -0.0989183 0)
(-0.100918 -0.0965986 0)
(-0.0661646 -0.089989 0)
(-0.0337888 -0.0845384 0)
(-0.00299255 -0.0861134 0)
(0.0194696 -0.0958413 0)
(0.0340621 -0.0971243 0)
(0.037006 -0.104637 0)
(0.0339944 -0.0834712 0)
(-0.410151 0.128642 0)
(-0.34752 0.184725 0)
(-0.489379 0.194666 0)
(-0.528319 0.185023 0)
(-0.532307 0.135006 0)
(-0.505963 0.0843832 0)
(-0.478148 0.0640087 0)
(-0.447536 0.0600245 0)
(-0.408266 0.0572724 0)
(-0.364551 0.0468774 0)
(-0.338525 0.0191401 0)
(-0.328898 -0.0246304 0)
(-0.328208 -0.071744 0)
(-0.32534 -0.108414 0)
(-0.306783 -0.120231 0)
(-0.265582 -0.113565 0)
(-0.214121 -0.104103 0)
(-0.158345 -0.0980295 0)
(-0.109136 -0.0992449 0)
(-0.0710479 -0.103096 0)
(-0.0467838 -0.105074 0)
(-0.0350726 -0.110923 0)
(-0.00191299 -0.114587 0)
(-1.24322 1.00862 0)
(-1.57789 0.326183 0)
(-1.77176 0.266546 0)
(-1.7884 0.164461 0)
(-1.71019 0.0889632 0)
(-1.66789 0.0380844 0)
(-1.65907 0.00728201 0)
(-1.6103 -0.0311021 0)
(-1.49164 -0.0568171 0)
(-1.33001 -0.0276908 0)
(-1.22 -0.0264488 0)
(-1.1856 -0.0702508 0)
(-1.20241 -0.109585 0)
(-1.23126 -0.127257 0)
(-1.17988 -0.151987 0)
(-1.03997 -0.183456 0)
(-0.866138 -0.202308 0)
(-0.686983 -0.206797 0)
(-0.519869 -0.20176 0)
(-0.390616 -0.191396 0)
(-0.261396 -0.152266 0)
(-0.206576 -0.139613 0)
(-0.1406 -0.151123 0)
(-0.721438 2.08549 0)
(-1.03563 0.924045 0)
(-1.53053 0.510167 0)
(-1.89837 0.249472 0)
(-2.14373 0.102657 0)
(-2.26166 0.0387343 0)
(-2.27983 0.00833477 0)
(-2.14104 -0.165025 0)
(-2.08758 -0.180546 0)
(-2.09393 -0.148758 0)
(-2.21247 -0.0896249 0)
(-2.52268 0.0516951 0)
(-2.49028 0.00384173 0)
(-2.1273 -0.226833 0)
(-1.77586 -0.432535 0)
(-1.43757 -0.534153 0)
(-1.09128 -0.570876 0)
(-0.732491 -0.566639 0)
(-0.201556 -0.452125 0)
(0.0363135 -0.387132 0)
(0.383411 -0.199814 0)
(0.0907242 -0.0950662 0)
(-0.183002 -0.0867882 0)
(-0.369245 2.72244 0)
(-0.518331 1.51158 0)
(-0.998758 0.97399 0)
(-1.30872 0.632254 0)
(-1.55979 0.373279 0)
(-1.7649 0.182943 0)
(-2.05241 0.0621167 0)
(-2.52002 -0.0596806 0)
(-2.9526 -0.0234316 0)
(-3.04709 0.143336 0)
(-2.74635 0.247252 0)
(-2.33008 -0.121454 0)
(-2.00571 -0.412925 0)
(-1.7279 -0.608285 0)
(-1.57928 -0.70476 0)
(-1.49922 -0.756869 0)
(-1.4332 -0.819834 0)
(-1.36924 -0.872878 0)
(-1.21354 -0.800166 0)
(-1.04262 -0.646844 0)
(-0.772238 -0.277889 0)
(-0.732503 0.120018 0)
(-0.701972 0.406896 0)
(-0.148737 2.96329 0)
(-0.153705 1.84479 0)
(-0.507526 1.28871 0)
(-0.643322 0.893476 0)
(-0.753794 0.6099 0)
(-0.848385 0.503256 0)
(-1.00272 0.54618 0)
(-1.3 0.447764 0)
(-1.73413 0.0149983 0)
(-2.09782 -0.344654 0)
(-2.06495 -0.356574 0)
(-1.8314 -0.546784 0)
(-1.72748 -0.630491 0)
(-1.66494 -0.704844 0)
(-1.59541 -0.760123 0)
(-1.51828 -0.788599 0)
(-1.46146 -0.822848 0)
(-1.45555 -0.855907 0)
(-1.4953 -0.84619 0)
(-1.49958 -0.744996 0)
(-1.38126 -0.385956 0)
(-1.27258 -0.0546663 0)
(-1.16116 0.254393 0)
(-0.00404256 2.93404 0)
(0.0800523 2.00549 0)
(-0.175615 1.43183 0)
(-0.195394 0.982716 0)
(-0.230733 0.650077 0)
(-0.256127 0.546197 0)
(-0.296475 0.620172 0)
(-0.375133 0.737257 0)
(-0.615888 0.614558 0)
(-1.00781 0.332534 0)
(-1.23732 0.0232953 0)
(-1.19882 -0.563869 0)
(-1.45233 -0.676115 0)
(-1.59322 -0.780737 0)
(-1.59538 -0.855244 0)
(-1.54354 -0.883896 0)
(-1.47254 -0.876348 0)
(-1.43269 -0.838128 0)
(-1.45119 -0.798674 0)
(-1.5319 -0.714659 0)
(-1.59158 -0.418462 0)
(-1.43725 -0.104857 0)
(-1.37908 0.133875 0)
(0.0880421 2.76409 0)
(0.211887 2.11132 0)
(-0.00920433 1.47782 0)
(0.0375781 0.991935 0)
(-0.000602381 0.638057 0)
(0.021017 0.544754 0)
(0.0291976 0.607787 0)
(0.0623886 0.746076 0)
(0.0472539 0.789418 0)
(-0.167063 0.550647 0)
(-0.463956 0.0520569 0)
(-0.799751 -0.287598 0)
(-1.07815 -0.294056 0)
(-1.28352 -0.592154 0)
(-1.48557 -0.84766 0)
(-1.56113 -0.934306 0)
(-1.53631 -0.954517 0)
(-1.48379 -0.876341 0)
(-1.455 -0.767941 0)
(-1.48614 -0.650317 0)
(-1.55919 -0.495046 0)
(-1.5496 -0.191463 0)
(-1.30482 0.0892717 0)
(0.155084 2.52706 0)
(0.308499 2.21835 0)
(0.0828831 1.50944 0)
(0.131732 0.979772 0)
(0.103331 0.631747 0)
(0.137585 0.525123 0)
(0.170545 0.579217 0)
(0.217943 0.691189 0)
(0.292095 0.78164 0)
(0.280832 0.715205 0)
(0.126609 0.454054 0)
(-0.166482 0.13508 0)
(-0.527829 -0.0888217 0)
(-0.895777 -0.288015 0)
(-1.20005 -0.563694 0)
(-1.4178 -0.802517 0)
(-1.54734 -0.94187 0)
(-1.5624 -0.900034 0)
(-1.51228 -0.797849 0)
(-1.47113 -0.596216 0)
(-1.4791 -0.435027 0)
(-1.51252 -0.313055 0)
(-1.43906 -0.176252 0)
(0.218162 2.2087 0)
(0.425177 2.31186 0)
(0.243225 1.60419 0)
(0.232809 1.00195 0)
(0.214242 0.623931 0)
(0.224683 0.489074 0)
(0.251114 0.534661 0)
(0.279563 0.625519 0)
(0.341323 0.707897 0)
(0.401204 0.723382 0)
(0.375391 0.623431 0)
(0.224717 0.446653 0)
(-0.0207146 0.272282 0)
(-0.332212 0.0582859 0)
(-0.734615 -0.24374 0)
(-1.12417 -0.566065 0)
(-1.40371 -0.826539 0)
(-1.5613 -0.885147 0)
(-1.58812 -0.800131 0)
(-1.49592 -0.652525 0)
(-1.38108 -0.448638 0)
(-1.28599 -0.249637 0)
(-1.22449 -0.139072 0)
(0.252772 1.7946 0)
(0.533967 2.28382 0)
(0.474454 1.72309 0)
(0.429688 1.07959 0)
(0.389197 0.645286 0)
(0.347158 0.479282 0)
(0.328575 0.514156 0)
(0.324995 0.592826 0)
(0.342897 0.646542 0)
(0.387283 0.673647 0)
(0.410831 0.648372 0)
(0.366836 0.572252 0)
(0.249621 0.480855 0)
(0.0653111 0.370017 0)
(-0.222652 0.183873 0)
(-0.639849 -0.140528 0)
(-1.07809 -0.521424 0)
(-1.40425 -0.802862 0)
(-1.57701 -0.870405 0)
(-1.59889 -0.782437 0)
(-1.44149 -0.630205 0)
(-1.22672 -0.536801 0)
(-0.936307 -0.402092 0)
(0.201896 1.36652 0)
(0.542882 2.08858 0)
(0.631316 1.74323 0)
(0.628096 1.15282 0)
(0.572148 0.711209 0)
(0.478502 0.531173 0)
(0.405485 0.545461 0)
(0.367825 0.606278 0)
(0.350513 0.634148 0)
(0.357969 0.643469 0)
(0.376095 0.637643 0)
(0.373706 0.607605 0)
(0.334335 0.568674 0)
(0.252327 0.531793 0)
(0.101898 0.459901 0)
(-0.167346 0.280387 0)
(-0.573739 -0.0306138 0)
(-1.03912 -0.399867 0)
(-1.42788 -0.684621 0)
(-1.69548 -0.807737 0)
(-1.79634 -0.782286 0)
(-1.70405 -0.743597 0)
(-1.39878 -0.586563 0)
(0.0677686 1.06528 0)
(0.416514 1.80144 0)
(0.61709 1.6256 0)
(0.692961 1.16327 0)
(0.655211 0.790424 0)
(0.547156 0.626801 0)
(0.45087 0.616128 0)
(0.396445 0.647468 0)
(0.365156 0.654733 0)
(0.349172 0.645442 0)
(0.348673 0.634907 0)
(0.349786 0.618872 0)
(0.338369 0.603066 0)
(0.308703 0.60068 0)
(0.249006 0.597518 0)
(0.119935 0.536208 0)
(-0.128434 0.356176 0)
(-0.500433 0.0848352 0)
(-0.895168 -0.18867 0)
(-1.27498 -0.444471 0)
(-1.7139 -0.661344 0)
(-2.09155 -0.848966 0)
(-2.33122 -0.824335 0)
(-0.0535287 0.934524 0)
(0.232826 1.49935 0)
(0.480177 1.42454 0)
(0.612777 1.11619 0)
(0.609219 0.851899 0)
(0.527796 0.722204 0)
(0.448825 0.69026 0)
(0.402094 0.690971 0)
(0.375176 0.681902 0)
(0.355352 0.661586 0)
(0.344534 0.642222 0)
(0.339853 0.626205 0)
(0.332567 0.61766 0)
(0.318898 0.626241 0)
(0.298216 0.650376 0)
(0.25045 0.658104 0)
(0.132617 0.59309 0)
(-0.119837 0.405526 0)
(-0.470689 0.145127 0)
(-0.718074 0.0135822 0)
(-1.115 -0.0506433 0)
(-1.62346 -0.267056 0)
(-1.94447 -0.598231 0)
(-0.0904222 0.911769 0)
(0.0989556 1.23906 0)
(0.328209 1.21585 0)
(0.467636 1.04124 0)
(0.492953 0.879109 0)
(0.456059 0.783476 0)
(0.414133 0.739605 0)
(0.388785 0.719717 0)
(0.37509 0.700739 0)
(0.363143 0.676497 0)
(0.353015 0.652417 0)
(0.345915 0.634078 0)
(0.338354 0.62725 0)
(0.328228 0.637864 0)
(0.318627 0.667121 0)
(0.306148 0.702799 0)
(0.265692 0.715163 0)
(0.158044 0.651742 0)
(-0.142757 0.435154 0)
(-0.387889 0.215479 0)
(-0.525971 0.178055 0)
(-0.847449 0.097233 0)
(-1.21144 -0.311938 0)
(-0.0608505 0.924026 0)
(0.0522202 1.0621 0)
(0.21964 1.04669 0)
(0.334464 0.961264 0)
(0.37692 0.871494 0)
(0.378284 0.802887 0)
(0.370143 0.757605 0)
(0.366042 0.729368 0)
(0.366024 0.706875 0)
(0.365042 0.683375 0)
(0.361866 0.659694 0)
(0.357632 0.641492 0)
(0.352363 0.63565 0)
(0.346253 0.646153 0)
(0.342101 0.672794 0)
(0.343961 0.711627 0)
(0.342987 0.754921 0)
(0.330014 0.784611 0)
(0.20056 0.705408 0)
(-0.0837754 0.418212 0)
(-0.174957 0.253773 0)
(-0.112251 0.34715 0)
(-0.290164 0.0779618 0)
(-0.017388 0.920841 0)
(0.0548614 0.958905 0)
(0.159549 0.92742 0)
(0.245708 0.889389 0)
(0.293849 0.84136 0)
(0.317348 0.792404 0)
(0.330354 0.752432 0)
(0.340844 0.723809 0)
(0.351073 0.701604 0)
(0.359494 0.680746 0)
(0.364648 0.660329 0)
(0.366595 0.644585 0)
(0.366791 0.639752 0)
(0.367558 0.649125 0)
(0.371466 0.671365 0)
(0.382718 0.703576 0)
(0.402447 0.744696 0)
(0.431202 0.806745 0)
(0.442405 0.846487 0)
(0.277798 0.662636 0)
(0.0475627 0.278652 0)
(0.0451053 0.192457 0)
(0.267752 0.25318 0)
(0.00995046 0.890952 0)
(0.0649179 0.892312 0)
(0.13175 0.846944 0)
(0.196242 0.829499 0)
(0.242536 0.802597 0)
(0.274733 0.767359 0)
(0.297832 0.734611 0)
(0.316416 0.708799 0)
(0.333114 0.688263 0)
(0.34807 0.670059 0)
(0.360242 0.653275 0)
(0.369214 0.640535 0)
(0.376607 0.636262 0)
(0.385649 0.643155 0)
(0.399395 0.660048 0)
(0.420159 0.683717 0)
(0.452563 0.711657 0)
(0.496302 0.760029 0)
(0.572894 0.850021 0)
(0.572381 0.837545 0)
(0.355203 0.461956 0)
(0.119425 0.0808911 0)
(0.159412 0.0865416 0)
(0.020017 0.847847 0)
(0.067807 0.839539 0)
(0.117994 0.789158 0)
(0.168756 0.779758 0)
(0.210663 0.763399 0)
(0.244492 0.737409 0)
(0.271431 0.711084 0)
(0.29405 0.688662 0)
(0.314495 0.669993 0)
(0.333495 0.653787 0)
(0.350658 0.639653 0)
(0.36579 0.629041 0)
(0.380308 0.624459 0)
(0.397205 0.627696 0)
(0.419823 0.638214 0)
(0.449623 0.653204 0)
(0.49066 0.669004 0)
(0.542267 0.690883 0)
(0.63226 0.761729 0)
(0.74347 0.860454 0)
(0.716349 0.694142 0)
(0.474931 0.338065 0)
(0.279037 0.0764533 0)
(0.0213329 0.803975 0)
(0.064815 0.792757 0)
(0.108078 0.742673 0)
(0.150762 0.737118 0)
(0.188567 0.726501 0)
(0.221528 0.70661 0)
(0.249622 0.685208 0)
(0.274223 0.665827 0)
(0.296818 0.648865 0)
(0.318248 0.633997 0)
(0.338691 0.621251 0)
(0.358418 0.611379 0)
(0.378671 0.605515 0)
(0.401762 0.60449 0)
(0.430669 0.608096 0)
(0.46707 0.614299 0)
(0.513355 0.619903 0)
(0.570275 0.621728 0)
(0.651638 0.644035 0)
(0.793502 0.738151 0)
(0.926209 0.747256 0)
(0.906137 0.535127 0)
(0.765476 0.252992 0)
(0.0201708 0.763131 0)
(0.0599284 0.749815 0)
(0.0992188 0.70217 0)
(0.136893 0.699251 0)
(0.171506 0.692081 0)
(0.203068 0.676218 0)
(0.231286 0.658397 0)
(0.256856 0.641494 0)
(0.280734 0.625992 0)
(0.303694 0.611967 0)
(0.326254 0.599622 0)
(0.349025 0.589323 0)
(0.373119 0.581436 0)
(0.400213 0.576096 0)
(0.432521 0.573016 0)
(0.4719 0.570735 0)
(0.519607 0.566695 0)
(0.577232 0.555905 0)
(0.645812 0.540745 0)
(0.761211 0.565806 0)
(0.93101 0.600148 0)
(1.06782 0.528414 0)
(1.11198 0.327782 0)
(0.0187803 0.725458 0)
(0.05517 0.710226 0)
(0.0912613 0.665653 0)
(0.12541 0.664763 0)
(0.157538 0.65977 0)
(0.187683 0.646597 0)
(0.215546 0.631324 0)
(0.241482 0.616329 0)
(0.266096 0.601994 0)
(0.290033 0.58846 0)
(0.313918 0.575933 0)
(0.338467 0.564564 0)
(0.364638 0.554358 0)
(0.393632 0.545069 0)
(0.426911 0.536193 0)
(0.465998 0.526546 0)
(0.511666 0.51399 0)
(0.565076 0.494685 0)
(0.623058 0.463091 0)
(0.699507 0.433701 0)
(0.821403 0.415373 0)
(0.968258 0.367284 0)
(1.07115 0.234407 0)
(0.0174707 0.690658 0)
(0.0509337 0.67375 0)
(0.084183 0.632244 0)
(0.115622 0.632888 0)
(0.145702 0.629282 0)
(0.17446 0.617919 0)
(0.201665 0.604431 0)
(0.227511 0.590826 0)
(0.252398 0.57734 0)
(0.276837 0.56405 0)
(0.301401 0.551089 0)
(0.326742 0.538481 0)
(0.353625 0.526078 0)
(0.382903 0.51349 0)
(0.415488 0.500081 0)
(0.452341 0.484808 0)
(0.493977 0.465955 0)
(0.540755 0.441023 0)
(0.590175 0.405241 0)
(0.642231 0.358235 0)
(0.70876 0.304717 0)
(0.797813 0.239737 0)
(0.872855 0.136768 0)
(0.0162159 0.658449 0)
(0.0471451 0.64009 0)
(0.0778267 0.601399 0)
(0.107068 0.603161 0)
(0.135355 0.60044 0)
(0.162743 0.590312 0)
(0.189069 0.578059 0)
(0.214449 0.565421 0)
(0.239171 0.5525 0)
(0.263628 0.53929 0)
(0.288279 0.525841 0)
(0.313642 0.512105 0)
(0.340285 0.497875 0)
(0.368795 0.482737 0)
(0.399732 0.466061 0)
(0.433599 0.446934 0)
(0.470659 0.424058 0)
(0.510792 0.395805 0)
(0.552695 0.359618 0)
(0.593749 0.313065 0)
(0.633721 0.255494 0)
(0.678774 0.188644 0)
(0.717106 0.10574 0)
(0.0150414 0.628584 0)
(0.0437157 0.608968 0)
(0.0720583 0.572758 0)
(0.0994122 0.575293 0)
(0.126048 0.573139 0)
(0.152071 0.563869 0)
(0.177356 0.552481 0)
(0.201974 0.540504 0)
(0.226146 0.527941 0)
(0.250169 0.51472 0)
(0.274388 0.50083 0)
(0.299183 0.486185 0)
(0.32495 0.470563 0)
(0.352075 0.453576 0)
(0.380888 0.434668 0)
(0.411607 0.41308 0)
(0.44427 0.387841 0)
(0.478582 0.357823 0)
(0.513722 0.321712 0)
(0.548033 0.278103 0)
(0.578587 0.22539 0)
(0.605638 0.164496 0)
(0.624199 0.093409 0)
(0.0139694 0.600862 0)
(0.040581 0.580156 0)
(0.0667874 0.546098 0)
(0.0924213 0.549126 0)
(0.117485 0.547325 0)
(0.142137 0.538668 0)
(0.166264 0.527902 0)
(0.189903 0.516388 0)
(0.213225 0.504058 0)
(0.236453 0.490798 0)
(0.259834 0.476559 0)
(0.283635 0.461242 0)
(0.308119 0.44463 0)
(0.333517 0.426384 0)
(0.360001 0.406036 0)
(0.38762 0.382984 0)
(0.416257 0.356502 0)
(0.445548 0.325777 0)
(0.474766 0.289987 0)
(0.502932 0.248454 0)
(0.52783 0.200128 0)
(0.548048 0.145405 0)
(0.559927 0.0837329 0)
(0.0129931 0.575114 0)
(0.0376886 0.553453 0)
(0.0619395 0.521277 0)
(0.08594 0.524576 0)
(0.109472 0.522976 0)
(0.132744 0.514767 0)
(0.155626 0.504466 0)
(0.178132 0.493297 0)
(0.200393 0.48114 0)
(0.22257 0.467856 0)
(0.244835 0.453379 0)
(0.267365 0.437609 0)
(0.290323 0.420354 0)
(0.313829 0.401326 0)
(0.337942 0.380149 0)
(0.362611 0.35636 0)
(0.387636 0.329431 0)
(0.412627 0.298794 0)
(0.436914 0.263899 0)
(0.459729 0.224403 0)
(0.479639 0.179858 0)
(0.495544 0.130756 0)
(0.504516 0.0771158 0)
(0.0120983 0.551197 0)
(0.0349987 0.528689 0)
(0.0574498 0.498189 0)
(0.0798653 0.501599 0)
(0.10189 0.500082 0)
(0.123768 0.49221 0)
(0.145344 0.482275 0)
(0.16661 0.471381 0)
(0.187667 0.459375 0)
(0.208628 0.446107 0)
(0.229603 0.431505 0)
(0.250701 0.415478 0)
(0.272012 0.397867 0)
(0.293579 0.378438 0)
(0.315386 0.356898 0)
(0.337326 0.332905 0)
(0.359169 0.306089 0)
(0.38054 0.276081 0)
(0.400858 0.242545 0)
(0.41947 0.205322 0)
(0.435336 0.164283 0)
(0.44776 0.119973 0)
(0.454552 0.0725287 0)
(0.0112758 0.528983 0)
(0.0324865 0.505727 0)
(0.0532668 0.476748 0)
(0.0741332 0.480163 0)
(0.094667 0.478641 0)
(0.115141 0.471028 0)
(0.135368 0.461395 0)
(0.155322 0.450738 0)
(0.175085 0.438884 0)
(0.194726 0.42568 0)
(0.214311 0.411059 0)
(0.233898 0.394944 0)
(0.253523 0.377206 0)
(0.273179 0.357667 0)
(0.292805 0.336107 0)
(0.312268 0.312279 0)
(0.331337 0.285936 0)
(0.349674 0.256852 0)
(0.366797 0.224848 0)
(0.382164 0.189879 0)
(0.394973 0.151956 0)
(0.404764 0.111583 0)
(0.409963 0.0689429 0)
(0.0105235 0.508347 0)
(0.0301436 0.484461 0)
(0.0493471 0.45688 0)
(0.0687046 0.46024 0)
(0.0877649 0.458653 0)
(0.106831 0.451243 0)
(0.125685 0.441874 0)
(0.144286 0.431434 0)
(0.162698 0.419742 0)
(0.180962 0.406652 0)
(0.199106 0.392103 0)
(0.217153 0.376034 0)
(0.235101 0.358348 0)
(0.252913 0.338913 0)
(0.270506 0.317569 0)
(0.287736 0.294147 0)
(0.304387 0.268488 0)
(0.320164 0.240465 0)
(0.334673 0.210005 0)
(0.347483 0.177137 0)
(0.357978 0.141947 0)
(0.365856 0.104876 0)
(0.369961 0.0661176 0)
(0.00984931 0.489158 0)
(0.0279791 0.464828 0)
(0.0456447 0.438511 0)
(0.06355 0.441798 0)
(0.0811608 0.440107 0)
(0.0988296 0.432863 0)
(0.116305 0.423735 0)
(0.133534 0.413505 0)
(0.15057 0.401993 0)
(0.16743 0.38906 0)
(0.184118 0.374658 0)
(0.200628 0.35874 0)
(0.216938 0.341237 0)
(0.232991 0.322056 0)
(0.248696 0.301088 0)
(0.263913 0.278221 0)
(0.278446 0.25336 0)
(0.292043 0.226448 0)
(0.304386 0.197481 0)
(0.31514 0.166538 0)
(0.323839 0.133739 0)
(0.33029 0.0994553 0)
(0.333612 0.0638545 0)
(0.00927676 0.47126 0)
(0.0260171 0.44681 0)
(0.0421062 0.421581 0)
(0.0586383 0.424796 0)
(0.0748334 0.422977 0)
(0.0911315 0.415879 0)
(0.10724 0.40698 0)
(0.123101 0.396963 0)
(0.138762 0.385649 0)
(0.154221 0.372912 0)
(0.169463 0.358715 0)
(0.184469 0.343028 0)
(0.199198 0.325803 0)
(0.213589 0.306978 0)
(0.227549 0.286485 0)
(0.24095 0.264256 0)
(0.25362 0.240242 0)
(0.265348 0.214435 0)
(0.275883 0.186873 0)
(0.284967 0.157661 0)
(0.292252 0.126932 0)
(0.297623 0.094986 0)
(0.300398 0.0619564 0)
(0.00884279 0.454467 0)
(0.0242822 0.430437 0)
(0.0386867 0.406053 0)
(0.0539375 0.409184 0)
(0.0687537 0.407222 0)
(0.0837224 0.400265 0)
(0.0984892 0.391593 0)
(0.113004 0.381793 0)
(0.127315 0.370696 0)
(0.141402 0.358188 0)
(0.155237 0.344242 0)
(0.168793 0.328841 0)
(0.182024 0.311959 0)
(0.194863 0.293556 0)
(0.207226 0.273593 0)
(0.218997 0.252038 0)
(0.230033 0.228875 0)
(0.240162 0.204123 0)
(0.249186 0.177847 0)
(0.256916 0.150163 0)
(0.263101 0.121203 0)
(0.267684 0.0912051 0)
(0.270145 0.0602613 0)
(0.00857412 0.438578 0)
(0.0227731 0.415743 0)
(0.0353751 0.391935 0)
(0.0494213 0.394912 0)
(0.0628827 0.392792 0)
(0.0765703 0.385986 0)
(0.0900253 0.37754 0)
(0.103228 0.367964 0)
(0.116229 0.357098 0)
(0.12899 0.344841 0)
(0.141478 0.331176 0)
(0.153663 0.316101 0)
(0.165492 0.2996 0)
(0.176904 0.281655 0)
(0.18782 0.262247 0)
(0.198143 0.241366 0)
(0.207753 0.219023 0)
(0.216515 0.195252 0)
(0.224279 0.170127 0)
(0.230914 0.143765 0)
(0.236251 0.11629 0)
(0.240277 0.0878847 0)
(0.24261 0.058594 0)
(0.00845627 0.423422 0)
(0.0214445 0.402712 0)
(0.0321944 0.379267 0)
(0.0450628 0.381947 0)
(0.0571698 0.379648 0)
(0.0696169 0.373005 0)
(0.081781 0.364784 0)
(0.0937058 0.355433 0)
(0.105437 0.344804 0)
(0.11692 0.332807 0)
(0.128125 0.319441 0)
(0.139016 0.30471 0)
(0.149541 0.288609 0)
(0.15964 0.271133 0)
(0.169244 0.252279 0)
(0.178269 0.232054 0)
(0.186619 0.21048 0)
(0.194187 0.1876 0)
(0.200865 0.163489 0)
(0.206565 0.138251 0)
(0.211188 0.111995 0)
(0.214751 0.0848606 0)
(0.21698 0.0568418 0)
(0.00842765 0.408898 0)
(0.0202173 0.391257 0)
(0.0291608 0.368095 0)
(0.0408188 0.370288 0)
(0.0515476 0.367776 0)
(0.0627724 0.361303 0)
(0.0736448 0.3533 0)
(0.0843095 0.34417 0)
(0.0947927 0.333771 0)
(0.105026 0.322033 0)
(0.114989 0.308968 0)
(0.124638 0.294585 0)
(0.133918 0.278887 0)
(0.142776 0.261877 0)
(0.151147 0.243563 0)
(0.158958 0.223962 0)
(0.166128 0.203103 0)
(0.172574 0.181029 0)
(0.178217 0.157806 0)
(0.183 0.133522 0)
(0.186871 0.108265 0)
(0.189865 0.0821382 0)
(0.191765 0.0550993 0)
(0.00840549 0.395002 0)
(0.0190038 0.381251 0)
(0.0262532 0.358459 0)
(0.0366288 0.359972 0)
(0.0459345 0.357197 0)
(0.0559257 0.350888 0)
(0.065477 0.343092 0)
(0.0748744 0.334169 0)
(0.084099 0.323988 0)
(0.0930784 0.312501 0)
(0.101798 0.299732 0)
(0.110206 0.285693 0)
(0.118247 0.270392 0)
(0.125869 0.253841 0)
(0.133009 0.236053 0)
(0.139601 0.217048 0)
(0.145575 0.196859 0)
(0.150863 0.175527 0)
(0.155403 0.153101 0)
(0.159156 0.129653 0)
(0.162093 0.105247 0)
(0.16425 0.0799595 0)
(0.165431 0.0537315 0)
(0.00830828 0.381793 0)
(0.0177098 0.37253 0)
(0.0234144 0.350378 0)
(0.0324292 0.351046 0)
(0.0402541 0.347954 0)
(0.0489772 0.341796 0)
(0.0571549 0.334186 0)
(0.0652574 0.325455 0)
(0.0731852 0.315473 0)
(0.0808751 0.304228 0)
(0.0883155 0.29175 0)
(0.0954431 0.278051 0)
(0.102205 0.263146 0)
(0.108547 0.247048 0)
(0.114409 0.229775 0)
(0.119727 0.21135 0)
(0.124439 0.191805 0)
(0.128484 0.171175 0)
(0.131814 0.149497 0)
(0.134393 0.12682 0)
(0.136206 0.103191 0)
(0.137275 0.0786639 0)
(0.13743 0.0531738 0)
(0.00809128 0.369468 0)
(0.0162858 0.365036 0)
(0.020609 0.343861 0)
(0.0281948 0.343566 0)
(0.0344863 0.340121 0)
(0.0419076 0.334092 0)
(0.04866 0.326645 0)
(0.055443 0.318088 0)
(0.0620327 0.308294 0)
(0.068397 0.297288 0)
(0.0745186 0.285096 0)
(0.0803253 0.271737 0)
(0.0857665 0.257226 0)
(0.0907902 0.241578 0)
(0.0953351 0.224815 0)
(0.0993428 0.206962 0)
(0.102758 0.188047 0)
(0.105525 0.168098 0)
(0.107605 0.147141 0)
(0.108965 0.125204 0)
(0.109598 0.102314 0)
(0.109518 0.0785024 0)
(0.108609 0.0537066 0)
(0.00764091 0.357908 0)
(0.0145393 0.358468 0)
(0.0176824 0.338836 0)
(0.0238006 0.337482 0)
(0.0285334 0.333683 0)
(0.0346159 0.327728 0)
(0.0398987 0.320414 0)
(0.0453441 0.312006 0)
(0.0505598 0.302387 0)
(0.0555767 0.291617 0)
(0.0603576 0.27971 0)
(0.0648312 0.266685 0)
(0.0689515 0.252566 0)
(0.0726704 0.237364 0)
(0.0759311 0.221104 0)
(0.0786811 0.203812 0)
(0.0808715 0.185508 0)
(0.0824572 0.166214 0)
(0.0834079 0.145942 0)
(0.0836885 0.124707 0)
(0.0833077 0.102516 0)
(0.0822761 0.0793584 0)
(0.0805398 0.0551881 0)
(0.00727927 0.3487 0)
(0.0130656 0.353695 0)
(0.0151371 0.33544 0)
(0.0198616 0.333095 0)
(0.0232007 0.329026 0)
(0.0280995 0.323138 0)
(0.032062 0.315929 0)
(0.036331 0.30766 0)
(0.04032 0.298203 0)
(0.044147 0.287651 0)
(0.0477423 0.276004 0)
(0.0510441 0.263285 0)
(0.0540105 0.24952 0)
(0.0565951 0.234722 0)
(0.0587451 0.218914 0)
(0.0604109 0.202125 0)
(0.0615444 0.184365 0)
(0.0621099 0.165657 0)
(0.0620762 0.146002 0)
(0.061399 0.125413 0)
(0.0600827 0.103879 0)
(0.0581182 0.0813449 0)