/*--------------------------------*- C++ -*----------------------------------*\
| =========                 |                                                 |
| \\      /  F ield         | OpenFOAM: The Open Source CFD Toolbox           |
|  \\    /   O peration     | Version:  5.x                                   |
|   \\  /    A nd           | Web:      www.OpenFOAM.org                      |
|    \\/     M anipulation  |                                                 |
\*---------------------------------------------------------------------------*/
FoamFile
{
    version     2.0;
    format      ascii;
    class       volScalarField;
    location    "0.05";
    object      alpha.water;
}
// * * * * * * * * * * * * * * * * * * * * * * * * * * * * * * * * * * * * * //

dimensions      [0 0 0 0 0 0 0];

internalField   nonuniform List<scalar> 
2268
(
1
1
1
0.999999
1
1
1
1
1
1
1
1
1
0.951102
0.534868
0.0210173
-2.76151e-06
-1.98525e-07
-3.84722e-08
-8.56705e-09
-1.93625e-09
-4.28581e-10
-6.38228e-11
0.999999
1
1
1
1
1
1
1
1
1
1
1
0.998426
0.739392
0.225985
0.0214423
0.00519513
0.00124955
0.000212313
2.56544e-05
2.09148e-06
8.86967e-08
-1.88678e-10
1
1
1
1
1
1
1
0.999999
0.999999
1
1
1
0.986969
0.47735
0.0417865
0.0111547
0.00513937
0.00156714
0.00020081
1.47456e-05
1.2093e-06
5.23522e-08
-7.57537e-11
1
1
1
1
1
1
1
1
1
1
1
1
0.95465
0.307505
0.0144402
0.00482813
0.00165037
0.000546383
7.4714e-05
6.36418e-06
5.45722e-07
2.56043e-08
-1.76157e-11
1
1
1
1
1
1
1
1
1
1
1
1
0.905005
0.213032
0.00754632
0.00200151
0.000530758
0.000112496
1.87991e-05
2.43918e-06
2.28216e-07
1.19527e-08
-1.6185e-11
1
1
1
1
1
1
1
1
1
1
1
1
0.849474
0.144654
0.004031
0.00081402
0.000191995
3.95863e-05
6.70684e-06
9.1089e-07
9.26203e-08
5.53753e-09
-7.08489e-13
1
1
1
1
1
1
1
1
1
1
1
1
0.796437
0.0990927
0.00224228
0.000342757
6.9777e-05
1.3764e-05
2.3462e-06
3.33826e-07
3.73719e-08
2.65101e-09
-4.28838e-13
1
0.999999
0.999999
1
1
1
1
1
1
1
1
1
0.751513
0.0719803
0.0013068
0.000158981
2.68705e-05
4.8853e-06
8.22232e-07
1.21881e-07
1.51375e-08
1.28779e-09
0
3.35553e-26
1.9149e-26
2.03801e-28
-1.48014e-38
-7.15766e-40
2.18754e-51
4.2289e-35
2.01956e-36
2.11271e-38
3.87404e-40
6.32601e-42
9.04029e-44
1.10916e-45
1.1393e-47
9.45777e-50
6.02008e-52
2.69113e-54
7.12714e-57
7.07021e-60
7.14287e-24
2.35919e-24
2.05474e-26
7.41156e-29
1.56727e-30
3.70295e-32
5.37135e-33
1.40029e-34
2.55094e-36
4.67538e-38
7.62097e-40
1.0839e-41
1.31505e-43
1.32065e-45
1.04969e-47
6.13528e-50
2.27057e-52
3.23337e-55
9.50035e-61
5.68579e-22
1.43019e-22
1.33689e-24
8.76355e-27
1.93008e-28
4.71308e-30
3.21962e-31
7.56599e-33
1.43619e-34
2.56892e-36
4.07952e-38
5.62995e-40
6.57536e-42
6.26196e-44
4.57488e-46
2.26716e-48
8.82532e-51
1.77593e-53
7.34957e-59
2.64983e-20
5.75062e-21
6.07459e-23
4.79429e-25
1.17076e-26
2.92905e-28
1.33601e-29
2.96223e-31
5.59491e-33
9.75206e-35
1.50338e-36
1.99922e-38
2.21763e-40
1.94364e-42
1.54181e-44
9.29441e-47
3.7458e-49
7.53468e-52
3.09505e-57
8.34847e-19
1.69272e-19
2.03343e-21
1.48228e-23
4.02423e-25
1.21585e-26
4.21406e-28
8.85158e-30
1.64165e-31
2.77372e-33
4.11498e-35
5.18616e-37
6.18068e-39
6.23264e-41
4.99977e-43
3.01173e-45
1.20969e-47
2.42341e-50
9.88685e-56
1.98745e-17
3.88678e-18
5.24294e-20
3.58563e-22
1.02752e-23
4.6382e-25
1.0679e-26
2.076e-28
3.7725e-30
6.12176e-32
9.38658e-34
1.32839e-35
1.6065e-37
1.61027e-39
1.28946e-41
7.74034e-44
3.09419e-46
6.17015e-49
2.49231e-54
1.24103e-15
2.07733e-16
1.5588e-18
1.78527e-20
3.93083e-22
9.88593e-24
2.08339e-25
4.01963e-27
7.03489e-29
1.24314e-30
2.01834e-32
2.84914e-34
3.42879e-36
3.42393e-38
2.73392e-40
1.63277e-42
6.49201e-45
1.2878e-47
5.15673e-53
3.77835e-14
2.79525e-15
3.40204e-17
4.44005e-19
6.56969e-21
1.41469e-22
2.95553e-24
5.61541e-26
1.02652e-27
1.87864e-29
3.04558e-31
4.28203e-33
5.13159e-35
5.1103e-37
4.05897e-39
2.41074e-41
9.52945e-44
1.87948e-46
7.45152e-52
1
1
1
1
1
1
1
1
1
1
1
1
0.687839
0.0447374
0.000649684
6.28314e-05
7.82703e-06
1.15468e-06
1.77758e-07
2.68491e-08
3.94834e-09
6.33245e-10
1.40132e-10
1
1
1
1
1
1
1
1
1
1
1
1
0.592455
0.0184997
0.000304639
2.67876e-05
2.71804e-06
3.22697e-07
4.28876e-08
6.12523e-09
9.31696e-10
1.70379e-10
5.84897e-11
1
1
1
1
1
1
1
1
1
1
1
1
0.511849
0.00702745
0.000139993
1.11009e-05
1.00193e-06
1.00988e-07
1.14312e-08
1.43623e-09
2.16451e-10
3.69616e-11
1.06473e-11
1
1
1
1
1
1
1
1
1
1
1
1
0.442136
0.00262441
7.0173e-05
4.8287e-06
3.90767e-07
3.40356e-08
3.31847e-09
3.72186e-10
5.21192e-11
1.12099e-11
1.98976e-12
1
1
1
1
1
1
1
1
1
1
1
1
0.381935
0.000720759
3.7077e-05
2.25094e-06
1.5877e-07
1.21255e-08
1.03135e-09
1.15479e-10
1.35789e-11
3.13302e-12
3.85667e-13
1
1
1
1
1
1
1
1
1
1
1
1
0.329552
0.000426638
1.88635e-05
1.04806e-06
6.68644e-08
4.49395e-09
3.58422e-10
3.66272e-11
6.36594e-12
8.61971e-13
7.68724e-14
1
1
1
1
1
1
1
1
1
1
1
1
0.28464
0.00026628
9.71727e-06
5.24488e-07
3.02639e-08
1.79016e-09
1.36368e-10
1.18031e-11
2.50252e-12
2.40228e-13
1.70831e-14
1
1
1
1
1
1
1
1
1
1
1
1
0.245795
0.000189588
6.30328e-06
3.0116e-07
1.49838e-08
7.97356e-10
5.66418e-11
4.08399e-12
8.67073e-13
6.87814e-14
4.11716e-15
1
1
1
1
1
1
1
1
1
1
1
1
0.211942
0.000143765
4.48717e-06
1.83342e-07
7.90752e-09
3.95918e-10
2.5897e-11
1.59014e-12
3.14332e-13
2.09499e-14
1.07612e-15
1
1
1
1
1
1
1
1
1
1
1
1
0.182334
0.000105382
3.37796e-06
1.18704e-07
4.61188e-09
1.96901e-10
1.25067e-11
1.10066e-12
1.24271e-13
6.42943e-15
3.01968e-16
1
1
1
1
1
1
1
1
1
1
1
1
0.156366
7.37826e-05
2.0271e-06
7.55771e-08
2.76695e-09
1.0216e-10
5.87992e-12
7.29466e-13
5.03128e-14
2.08732e-15
8.78322e-17
1
1
1
1
1
1
1
1
1
1
1
1
0.133566
4.97767e-05
1.40151e-06
4.30779e-08
1.54135e-09
5.43217e-11
2.65104e-12
3.81275e-13
1.94597e-14
6.79121e-16
2.51978e-17
1
1
1
1
1
1
1
1
1
0.999999
0.999999
0.999999
0.113755
3.37527e-05
9.63884e-07
2.88256e-08
8.92625e-10
2.78752e-11
1.19782e-12
1.71091e-13
7.08841e-15
2.12842e-16
6.88236e-18
1
0.999998
0.999998
0.999998
0.999998
0.999998
0.999997
0.999997
0.999997
0.999996
0.999995
0.99999
0.096906
2.60179e-05
6.11977e-07
1.82612e-08
5.36606e-10
1.62335e-11
5.48711e-13
7.0719e-14
2.46758e-15
6.45721e-17
1.77854e-18
1
0.999987
0.999985
0.999984
0.999983
0.999981
0.99998
0.999977
0.999974
0.99997
0.999964
0.999931
0.0800964
2.30415e-05
7.01082e-07
1.74708e-08
1.02069e-10
-5.47232e-12
2.89373e-13
3.49366e-14
9.97005e-16
2.10622e-17
4.59178e-19
1
0.999897
0.99988
0.999874
0.999866
0.999856
0.999844
0.999829
0.999811
0.999782
0.999746
0.999516
0.0670679
3.14933e-05
4.65786e-07
6.65244e-09
1.62755e-10
-9.14307e-13
-1.61598e-13
2.61689e-14
5.0064e-16
7.16536e-18
1.1135e-19
1
0.999172
0.99904
0.999005
0.998956
0.998893
0.998816
0.998721
0.998616
0.998432
0.998213
0.996637
0.13866
3.68026e-06
1.75821e-07
6.34486e-09
1.52509e-10
2.13101e-12
3.50873e-15
2.32211e-15
1.28553e-16
1.41519e-18
1.5949e-20
0.941719
0.940328
0.938991
0.936795
0.933803
0.929996
0.925302
0.919505
0.913533
0.899427
0.883461
0.737479
0.226175
7.94813e-05
3.68358e-06
1.84317e-07
6.67985e-09
1.58533e-10
1.06669e-13
-2.27369e-15
1.65287e-17
1.33289e-19
1.12715e-21
0.283101
0.282559
0.279594
0.275149
0.269247
0.262
0.253414
0.24327
0.23371
0.209813
0.18749
0.0479746
0.0575692
0.0199714
0.000176262
8.28821e-06
7.47744e-08
2.13251e-11
1.06561e-15
-1.17551e-16
7.18795e-19
6.4909e-21
5.36404e-23
-1.53569e-35
9.62802e-23
1.61643e-20
1.32363e-18
7.06938e-17
2.76174e-15
8.36319e-14
2.03358e-12
4.0673e-11
6.76142e-10
9.71664e-09
1.18955e-07
1.30587e-06
0.0052229
0.00155761
3.91013e-05
4.1317e-07
-3.95222e-11
1.38695e-15
-5.20945e-18
3.75054e-20
3.64874e-22
2.97336e-24
0
1.02231e-22
1.79144e-20
1.63152e-18
9.89729e-17
4.47357e-15
1.60058e-13
4.70683e-12
1.14986e-10
1.89832e-09
2.28009e-08
2.13884e-07
5.04092e-05
0.00017248
0.00039734
1.18839e-05
9.72962e-08
-5.50793e-12
-1.60542e-14
-2.74815e-19
3.09704e-21
2.12818e-23
1.60447e-25
0
8.57635e-24
1.48085e-21
1.28714e-19
7.38863e-18
3.13859e-16
8.43825e-15
1.82446e-13
3.27042e-12
4.82846e-11
5.85671e-10
5.74704e-09
8.89007e-07
4.45499e-06
1.03776e-06
2.95055e-08
2.41607e-11
-2.17941e-12
-1.19109e-15
-1.45095e-18
1.35575e-22
1.0765e-24
7.58196e-27
0
2.96554e-25
3.59668e-23
1.96131e-21
7.84734e-20
2.4378e-18
6.05227e-17
1.20815e-15
1.75773e-14
1.24391e-13
-8.53525e-13
-4.49227e-11
3.26951e-08
1.45843e-07
2.14026e-08
2.30165e-09
3.25795e-12
-4.13771e-13
-1.61151e-16
-1.37931e-20
5.44334e-24
4.59363e-26
3.06889e-28
0
-1.16039e-27
-2.31888e-25
-1.97002e-23
-1.0703e-21
-4.23898e-20
-1.3239e-18
-3.38404e-17
-6.83116e-16
-2.14832e-14
-6.53674e-13
-9.32506e-12
1.27768e-10
5.71654e-10
1.48047e-10
1.26478e-10
-6.43096e-14
-1.98959e-14
-2.12462e-17
-3.02104e-22
1.35557e-25
1.5222e-27
1.0036e-29
-8.94242e-31
-1.37863e-28
-1.09658e-26
-5.83877e-25
-2.30555e-23
-7.116e-22
-1.81424e-20
-3.80689e-19
-6.98097e-18
-1.34845e-16
-3.60383e-15
-5.08778e-14
-2.84442e-14
2.33684e-14
2.44539e-13
1.9046e-12
-8.694e-16
-1.10215e-15
-1.98346e-19
3.48348e-25
2.08435e-27
3.34796e-29
2.40774e-31
-8.94486e-49
1.85953e-33
1.59564e-31
9.67275e-30
4.59709e-28
1.69694e-26
4.95041e-25
1.19921e-23
2.03379e-23
-2.13318e-21
-3.13975e-20
-6.1799e-18
1.33398e-17
1.2663e-14
1.77629e-13
1.61258e-14
9.52279e-16
1.82127e-19
1.50006e-22
1.59034e-26
9.24817e-29
7.08705e-31
1.16005e-32
1.7103e-51
1.98243e-37
-2.04013e-35
-1.91081e-33
9.58092e-32
8.35927e-30
2.71828e-28
6.90392e-27
1.50513e-25
-1.17291e-24
9.93075e-22
5.39469e-20
2.35479e-18
2.59385e-16
1.8535e-15
2.87491e-17
2.4797e-17
5.33002e-21
4.82034e-24
4.91964e-28
3.53464e-30
2.59004e-32
4.34935e-34
-7.45829e-55
-2.13141e-40
-9.86981e-39
-2.3743e-37
-2.43662e-35
-1.95806e-33
-1.00938e-31
-3.90748e-30
-1.19411e-28
-4.23783e-27
5.95118e-25
4.60257e-23
2.3289e-21
2.94252e-19
2.43107e-18
5.7657e-19
1.21051e-19
1.23165e-22
1.24956e-25
1.61557e-29
1.04416e-31
8.80714e-34
1.43083e-35
4.77309e-59
-2.96359e-44
-7.24289e-42
-7.59693e-40
-5.20294e-38
-2.60383e-36
-1.02168e-34
-3.28151e-33
-8.07046e-32
-1.63808e-30
3.76283e-29
6.52876e-27
1.92053e-25
5.64358e-24
1.02996e-21
1.13306e-20
2.85042e-22
2.17235e-24
2.87407e-27
4.18024e-31
3.07077e-33
2.56783e-35
4.19135e-37
-1.83515e-48
-3.73946e-46
-3.90976e-44
-2.77928e-42
-1.46733e-40
-6.11927e-39
-2.09205e-37
-6.06087e-36
-1.58707e-34
-3.5796e-33
3.96893e-32
5.13934e-30
1.79244e-28
6.26418e-27
1.54748e-24
1.96713e-23
1.7619e-26
2.92696e-26
4.98351e-29
8.67517e-33
7.1929e-35
6.55927e-37
1.09154e-38
3.73868e-69
1.69026e-53
3.01567e-51
3.34893e-49
2.58467e-47
1.55601e-45
7.01517e-44
2.72138e-42
9.34752e-41
2.90177e-39
1.31242e-37
4.75109e-35
2.08912e-33
6.61508e-32
2.19854e-30
6.59854e-28
1.04648e-26
2.78075e-28
6.8222e-31
1.49397e-34
1.44247e-36
1.46687e-38
2.52687e-40
-2.45913e-72
-1.09562e-58
-1.57464e-56
2.86459e-55
5.79317e-52
7.54576e-50
3.83107e-48
1.64493e-46
6.20346e-45
2.14774e-43
2.27135e-41
2.79321e-38
1.73053e-36
6.63984e-35
2.60905e-33
1.10585e-30
2.03108e-29
9.92036e-32
7.31561e-33
2.12772e-36
2.47405e-38
2.87305e-40
4.9433e-42
-6.51513e-76
-2.54209e-62
-7.12532e-60
-5.62089e-58
-3.80848e-56
-2.27647e-54
-1.57474e-52
-9.61117e-51
-5.30078e-49
-1.11808e-47
4.82654e-47
1.18704e-42
1.57388e-40
7.80507e-39
4.17837e-37
2.18968e-34
4.36219e-33
1.53249e-36
2.37531e-35
2.49674e-38
2.44814e-40
4.60091e-42
7.48254e-44
3.09632e-82
2.63487e-68
2.4172e-66
5.21773e-65
-1.46996e-62
-2.11931e-60
-1.64831e-58
-9.80292e-57
-5.00414e-55
1.63149e-53
5.09328e-51
2.90175e-49
1.71829e-46
1.27748e-44
6.23739e-43
2.75772e-41
2.47701e-38
7.17834e-37
2.60565e-38
2.40687e-40
1.91846e-42
4.98108e-44
9.97053e-46
-1.04142e-73
-3.99056e-71
-7.86591e-69
-1.05171e-66
-1.05196e-64
-8.38017e-63
-5.61595e-61
-3.19586e-59
-1.71652e-57
-7.17662e-56
7.71187e-57
1.4103e-54
1.34102e-50
3.99866e-48
2.71187e-46
1.51854e-44
2.06631e-41
7.00509e-40
2.61042e-43
1.94617e-42
1.23921e-44
4.62056e-46
1.18522e-47
5.46688e-94
1.16471e-78
3.52054e-76
6.9806e-74
1.02855e-71
1.20829e-69
1.16948e-67
9.51899e-66
6.93438e-64
4.61544e-62
2.85695e-60
1.67108e-58
1.00593e-56
4.43542e-54
6.45177e-52
5.23227e-50
8.37165e-48
3.69674e-45
1.34325e-43
1.23121e-44
6.5595e-47
3.74461e-48
1.26463e-49
5.1048e-97
4.74332e-83
1.60736e-80
3.63443e-78
6.16843e-76
8.48917e-74
9.84353e-72
9.89759e-70
8.91545e-68
7.34177e-66
5.63567e-64
4.08814e-62
2.84739e-60
2.1208e-58
1.33886e-55
1.87578e-53
1.68473e-51
4.87182e-48
2.48238e-46
1.85007e-47
2.8577e-49
2.66933e-50
1.22372e-51
-2.47182e-104
2.89455e-88
1.10858e-85
3.33994e-83
7.57636e-81
1.37776e-78
2.10257e-76
2.76505e-74
3.21208e-72
3.57614e-70
3.65961e-68
3.43886e-66
3.14889e-64
2.75322e-62
2.75213e-60
4.02054e-57
7.21455e-55
4.24798e-51
2.70517e-49
1.24553e-50
1.03577e-51
1.69787e-52
1.08842e-53
1.43461e-108
-2.27022e-93
-9.80306e-91
-2.75929e-88
-5.65706e-86
-8.84371e-84
-1.04571e-81
-8.18163e-80
-9.16201e-79
1.8035e-75
1.82342e-73
3.89048e-71
5.00236e-69
6.23405e-67
7.57197e-65
1.01284e-62
8.36291e-59
1.68692e-54
1.40521e-52
2.16675e-54
3.20337e-54
9.82152e-55
9.0409e-56
-8.80596e-104
-1.73237e-100
-1.26913e-97
-6.102e-95
-2.21627e-92
-6.38799e-90
-1.52165e-87
-3.06152e-85
-5.6242e-83
-7.20294e-81
9.28446e-81
1.11529e-77
2.35196e-75
4.81101e-73
9.68766e-71
1.94748e-68
6.80438e-65
8.13553e-59
1.19334e-56
1.45388e-56
9.49092e-57
5.2857e-57
7.13759e-58
1.43374e-121
-1.80703e-108
-1.89784e-105
-1.30415e-102
-6.60528e-100
-2.61144e-97
-8.25783e-95
-2.06081e-92
-4.06235e-90
-6.90152e-88
-2.87034e-87
-3.93658e-85
9.20518e-82
5.56672e-79
3.32523e-76
1.98751e-73
1.20499e-70
8.6362e-68
1.62119e-61
3.81995e-59
4.25274e-59
3.48379e-59
6.04829e-60
0
-2.18033e-120
-7.15331e-117
-1.53402e-113
-2.43776e-110
-3.05816e-107
-3.1341e-104
-2.65855e-101
-1.85335e-98
-9.69042e-96
-2.08423e-93
-1.44847e-92
-3.93309e-92
-9.25501e-93
-3.86032e-90
-5.93384e-88
-9.75026e-86
1.95048e-73
1.24403e-65
2.4223e-62
9.56536e-62
5.43373e-60
4.29168e-61
1.9001e-13
1.61503e-11
7.78023e-12
8.2215e-13
1.13552e-11
7.5959e-12
2.11792e-12
2.5834e-13
2.22182e-12
1.08634e-12
3.35916e-13
4.01047e-14
2.38121e-13
1.45651e-13
3.75906e-14
5.02095e-15
4.44399e-14
2.14084e-14
4.65413e-15
6.38129e-16
8.2056e-15
3.40211e-15
6.41185e-16
8.36219e-17
1.47084e-15
5.79527e-16
9.74311e-17
1.1474e-17
2.84547e-16
1.06881e-16
1.59172e-17
1.66525e-18
5.98907e-17
2.12939e-17
2.78412e-18
2.56321e-19
1.35638e-17
4.52177e-18
5.14702e-19
4.15911e-20
3.16849e-18
9.86849e-19
9.74701e-20
6.9529e-21
7.23455e-19
2.10747e-19
1.8068e-20
1.15003e-21
1.54787e-19
4.2132e-20
3.12947e-21
1.79422e-22
3.01896e-20
7.64631e-21
4.87239e-22
2.52463e-23
5.12171e-21
1.23543e-21
6.6084e-23
3.07669e-24
7.20587e-22
1.62713e-22
7.30121e-24
3.08111e-25
1.32576e-22
1.44991e-23
5.6e-25
2.35917e-26
2.40254e-23
8.27266e-25
3.1391e-26
1.36019e-27
1.31409e-24
3.72747e-26
1.4304e-27
6.4537e-29
5.32628e-26
1.74915e-27
6.68573e-29
3.1533e-30
2.15081e-27
7.3092e-29
2.8268e-30
1.4505e-31
7.10478e-29
2.58234e-30
1.05822e-31
5.96643e-33
3.63428e-30
1.30706e-31
5.28089e-33
2.13719e-34
1.83312e-31
6.4703e-33
2.55745e-34
6.21174e-36
8.22936e-33
2.91079e-34
1.1217e-35
2.23535e-37
3.45504e-34
1.20533e-35
4.46806e-37
9.33655e-39
1.29399e-35
4.34923e-37
1.52317e-38
3.59256e-40
4.15228e-37
1.30689e-38
4.68318e-40
1.26607e-41
1.08621e-38
3.51206e-40
1.28912e-41
4.08483e-43
2.52236e-40
8.44272e-42
3.19462e-43
1.20616e-44
5.20642e-42
1.81806e-43
7.14192e-45
3.05768e-46
9.57614e-44
3.51611e-45
1.44415e-46
6.4412e-48
1.57538e-45
6.13056e-47
2.65129e-48
1.23811e-49
2.32991e-47
9.68601e-49
4.44167e-50
2.18544e-51
3.1184e-49
1.39585e-50
6.83354e-52
3.56433e-53
3.80878e-51
1.84967e-52
9.73062e-54
5.4114e-55
4.28867e-53
2.27582e-54
1.29435e-55
7.71512e-57
4.50621e-55
2.62982e-56
1.62568e-57
1.04338e-58
4.48094e-57
2.8915e-58
1.95144e-59
1.35763e-60
4.30406e-59
3.07984e-60
2.27515e-61
1.71899e-62
4.29168e-61
3.42163e-62
2.7738e-63
2.66726e-64
3.42163e-62
2.7738e-63
2.24648e-64
1.63958e-65
1.43793e-13
2.78795e-15
7.784e-17
2.65129e-18
7.72315e-20
2.0727e-21
5.12645e-23
1.1566e-24
2.35509e-26
4.28058e-28
6.85489e-30
9.51629e-32
1.12094e-33
1.08607e-35
8.27508e-38
4.58574e-40
1.56218e-42
2.23809e-45
6.40574e-51
3.97081e-14
7.47755e-16
2.64039e-17
1.09697e-18
3.85496e-20
1.20008e-21
3.30532e-23
8.10954e-25
1.77271e-26
3.43961e-28
5.88238e-30
8.7751e-32
1.12538e-33
1.21899e-35
1.08223e-37
7.55352e-40
3.87634e-42
1.29484e-44
2.09275e-47
5.88679e-15
1.18377e-16
4.74529e-18
2.10919e-19
7.84601e-21
2.58937e-22
7.55101e-24
1.94957e-25
4.45586e-27
8.99048e-29
1.59242e-30
2.45434e-32
3.25012e-34
3.61527e-36
3.3003e-38
2.37643e-40
1.26589e-42
4.43176e-45
7.60548e-48
7.42596e-16
1.63366e-17
7.02915e-19
3.17354e-20
1.19983e-21
4.02277e-23
1.19324e-24
3.13365e-26
7.27752e-28
1.48958e-29
2.67143e-31
4.1606e-33
5.55584e-35
6.24669e-37
5.76111e-39
4.19062e-41
2.25621e-43
7.99387e-46
1.39155e-48
9.27579e-17
2.15873e-18
9.84261e-20
4.52227e-21
1.74491e-22
5.9468e-24
1.78857e-25
4.75211e-27
1.11438e-28
2.29935e-30
4.15144e-32
6.50279e-34
8.72825e-36
9.86257e-38
9.14409e-40
6.6921e-42
3.63026e-44
1.29883e-46
2.29017e-49
1.1706e-17
2.73024e-19
1.27564e-20
5.89049e-22
2.29804e-23
7.90791e-25
2.39901e-26
6.421e-28
1.5148e-29
3.14048e-31
5.69121e-33
8.94122e-35
1.2032e-36
1.36303e-38
1.26748e-40
9.31177e-43
5.07823e-45
1.83049e-47
3.26106e-50
1.52549e-18
3.41001e-20
1.58082e-21
7.21013e-23
2.80443e-24
9.63737e-26
2.9229e-27
7.82388e-29
1.84576e-30
3.8256e-32
6.92887e-34
1.08774e-35
1.46263e-37
1.65608e-39
1.54005e-41
1.13252e-43
6.1906e-46
2.24082e-48
4.01807e-51
2.08062e-19
4.295e-21
1.91897e-22
8.48577e-24
3.24047e-25
1.09838e-26
3.29661e-28
8.75037e-30
2.04971e-31
4.22171e-33
7.60297e-35
1.18741e-36
1.58929e-38
1.79236e-40
1.66159e-42
1.21941e-44
6.66112e-47
2.41378e-49
4.34155e-52
2.98642e-20
5.51866e-22
2.31603e-23
9.74207e-25
3.59373e-26
1.18575e-27
3.48366e-29
9.08677e-31
2.09743e-32
4.26556e-34
7.59701e-36
1.17488e-37
1.55895e-39
1.74499e-41
1.60748e-43
1.17382e-45
6.38984e-48
2.31152e-50
4.15811e-53
4.48368e-21
7.25398e-23
2.80121e-24
1.1001e-25
3.85624e-27
1.22182e-28
3.47442e-30
8.82303e-32
1.9913e-33
3.97282e-35
6.95928e-37
1.06081e-38
1.38994e-40
1.53886e-42
1.40442e-44
1.01766e-46
5.50657e-49
1.98377e-51
3.56012e-54
6.8634e-22
9.64987e-24
3.38597e-25
1.22169e-26
4.00857e-28
1.20396e-29
3.27803e-31
8.0316e-33
1.75927e-34
3.42208e-36
5.86581e-38
8.77528e-40
1.13128e-41
1.23505e-43
1.11371e-45
7.98934e-48
4.28811e-50
1.53541e-52
2.74365e-55
1.02559e-22
1.26511e-24
4.01959e-26
1.31841e-27
4.00442e-29
1.12844e-30
2.91546e-32
6.84006e-34
1.44498e-35
2.72621e-37
4.55311e-39
6.66138e-41
8.42462e-43
9.0471e-45
8.04428e-47
5.70279e-49
3.03139e-51
1.0773e-53
1.9141e-56
1.42196e-23
1.57348e-25
4.5431e-27
1.35002e-28
3.77665e-30
9.92995e-32
2.42138e-33
5.41351e-35
1.09838e-36
2.00299e-38
3.25006e-40
4.63928e-42
5.74484e-44
6.05899e-46
5.30527e-48
3.71283e-50
1.95284e-52
6.88257e-55
1.21492e-57
1.73982e-24
1.78108e-26
4.70724e-28
1.27168e-29
3.28219e-31
8.05415e-33
1.85243e-34
3.94233e-36
7.67327e-38
1.35095e-39
2.12757e-41
2.96063e-43
3.58728e-45
3.71388e-47
3.20109e-49
2.21091e-51
1.15039e-53
4.02016e-56
7.04846e-59
1.78157e-25
1.76476e-27
4.31021e-29
1.06848e-30
2.56414e-32
5.90692e-34
1.28674e-35
2.61415e-37
4.89051e-39
8.32408e-41
1.27364e-42
1.72913e-44
2.05136e-46
2.08589e-48
1.77073e-50
1.20757e-52
6.21871e-55
2.15568e-57
3.75474e-60
1.41338e-26
1.4789e-28
3.38431e-30
7.81365e-32
1.76583e-33
3.85823e-35
8.02375e-37
1.56553e-38
2.82787e-40
4.66956e-42
6.96029e-44
9.23913e-46
1.07512e-47
1.07536e-49
9.00271e-52
6.06903e-54
3.0964e-56
1.06562e-58
1.84501e-61
8.02935e-28
1.02382e-29
2.23538e-31
4.90485e-33
1.0607e-34
2.22641e-36
4.46514e-38
8.43315e-40
1.47991e-41
2.38231e-43
3.47279e-45
4.52144e-47
5.17431e-49
5.10212e-51
4.2204e-53
2.81708e-55
1.42594e-57
4.87797e-60
8.40223e-63
2.98433e-29
5.83286e-31
1.23856e-32
2.64053e-34
5.55376e-36
1.13447e-37
2.21716e-39
4.08745e-41
7.01578e-43
1.10702e-44
1.58528e-46
2.03191e-48
2.29391e-50
2.23574e-52
1.83143e-54
1.21277e-56
6.10056e-59
2.07738e-61
3.56329e-64
1.38099e-30
2.85503e-32
5.91843e-34
1.23059e-35
2.54653e-37
5.12574e-39
9.8644e-41
1.7892e-42
3.02362e-44
4.70238e-46
6.64552e-48
8.41807e-50
9.40621e-52
9.08732e-54
7.38959e-56
4.86472e-58
2.43623e-60
8.27048e-63
1.41409e-65
7.28682e-32
1.38186e-33
2.6874e-35
5.26059e-37
1.06157e-38
2.09634e-40
3.95408e-42
7.10558e-44
1.19044e-45
1.83514e-47
2.57078e-49
3.23071e-51
3.58486e-53
3.44268e-55
2.78587e-57
1.82711e-59
9.12593e-62
3.09328e-64
5.27684e-67
3.68474e-33
6.63509e-35
1.23124e-36
2.30597e-38
4.4136e-40
8.2754e-42
1.48742e-43
2.6313e-45
4.34441e-47
6.60964e-49
9.22061e-51
1.1544e-52
1.27653e-54
1.22194e-56
9.86337e-59
6.45778e-61
3.22264e-63
1.09226e-65
1.86045e-68
1.7477e-34
3.03631e-36
5.43681e-38
9.83388e-40
1.81489e-41
3.2861e-43
5.71628e-45
9.70122e-47
1.54111e-48
2.26929e-50
3.1364e-52
3.89199e-54
4.27059e-56
4.08191e-58
3.29497e-60
2.15816e-62
1.07801e-64
3.65885e-67
6.22562e-70
7.74905e-36
1.31136e-37
2.2837e-39
4.01556e-41
7.21003e-43
1.27105e-44
2.15494e-46
3.56172e-48
5.52051e-50
7.94101e-52
1.06602e-53
1.28929e-55
1.38345e-57
1.31334e-59
1.05663e-61
6.90544e-64
3.44617e-66
1.17012e-68
1.98707e-71
3.18902e-37
5.31961e-39
9.09693e-41
1.56737e-42
2.75475e-44
4.7528e-46
7.88934e-48
1.27833e-49
1.94447e-51
2.7481e-53
3.62548e-55
4.31757e-57
4.57101e-59
4.2697e-61
3.38729e-63
2.19015e-65
1.08494e-67
3.66918e-70
6.2101e-73
1.20964e-38
2.01723e-40
3.42294e-42
5.82819e-44
1.00984e-45
1.71557e-47
2.80291e-49
4.47058e-51
6.69765e-53
9.33145e-55
1.21533e-56
1.43064e-58
1.49928e-60
1.38743e-62
1.09229e-64
7.02225e-67
3.46545e-69
1.17014e-71
1.97565e-74
4.18959e-40
7.12695e-42
1.21321e-43
2.05952e-45
3.54399e-47
5.96562e-49
9.64499e-51
1.52144e-52
2.25418e-54
3.10699e-56
4.00577e-58
4.67208e-60
4.85647e-62
4.46381e-64
3.49521e-66
2.23795e-68
1.10159e-70
3.71674e-73
6.25913e-76
1.33015e-41
2.34198e-43
4.04436e-45
6.90635e-47
1.18905e-48
1.99575e-50
3.2104e-52
5.03216e-54
7.40358e-56
1.01313e-57
1.29705e-59
1.50285e-61
1.5529e-63
1.42006e-65
1.10733e-67
7.06849e-70
3.47274e-72
1.1713e-74
1.96699e-77
3.86468e-43
7.15811e-45
1.2678e-46
2.19688e-48
3.81191e-50
6.41919e-52
1.03291e-53
1.61629e-55
2.37093e-57
3.23252e-59
4.12191e-61
4.75679e-63
4.89689e-65
4.46326e-67
3.47099e-69
2.21129e-71
1.08516e-73
3.66045e-76
6.12872e-79
1.03386e-44
2.03823e-46
3.74124e-48
6.63293e-50
1.16798e-51
1.98514e-53
3.21181e-55
5.03995e-57
7.40029e-59
1.00869e-60
1.28488e-62
1.48062e-64
1.52178e-66
1.3849e-68
1.07562e-70
6.84627e-73
3.35823e-75
1.13338e-77
1.89165e-80
2.57531e-46
5.41199e-48
1.04173e-49
1.90375e-51
3.42387e-53
5.90648e-55
9.65597e-57
1.52604e-58
2.25139e-60
3.07805e-62
3.92796e-64
4.53078e-66
4.65881e-68
4.24043e-70
3.29361e-72
2.09656e-74
1.02865e-76
3.47468e-79
5.78023e-82
5.99605e-48
1.34986e-49
2.74608e-51
5.20632e-53
9.6189e-55
1.69289e-56
2.80928e-58
4.48974e-60
6.67916e-62
9.18794e-64
1.1778e-65
1.36304e-67
1.40493e-69
1.28102e-71
9.96305e-74
6.34861e-76
3.11757e-78
1.05436e-80
1.74792e-83
1.40037e-49
3.18654e-51
6.8809e-53
1.36066e-54
2.59554e-56
4.68218e-58
7.92033e-60
1.28487e-61
1.93386e-63
2.6845e-65
3.46564e-67
4.03273e-69
4.17429e-71
3.81857e-73
2.97734e-75
1.90084e-77
9.3479e-80
3.16621e-82
5.23015e-85
3.38521e-51
7.18339e-53
1.64621e-54
3.40975e-56
6.74502e-58
1.25235e-59
2.16775e-61
3.58192e-63
5.47114e-65
7.68481e-67
1.00148e-68
1.17411e-70
1.22256e-72
1.12359e-74
8.79222e-77
5.62859e-79
2.7735e-81
9.41049e-84
1.54873e-86
7.46832e-53
1.55638e-54
3.77735e-56
8.22254e-58
1.6931e-59
3.2475e-61
5.77179e-63
9.74462e-65
1.51474e-66
2.15815e-68
2.84518e-70
3.36691e-72
3.53213e-74
3.26545e-76
2.56702e-78
1.64904e-80
8.14566e-83
2.76922e-85
4.54005e-88
1.34444e-54
3.23915e-56
8.34713e-58
1.91506e-59
4.11823e-61
8.18699e-63
1.49864e-64
2.59248e-66
4.11142e-68
5.95506e-70
7.95742e-72
9.5206e-74
1.00766e-75
9.38169e-78
7.41558e-80
4.7833e-82
2.36958e-84
8.07271e-87
1.31831e-89
2.26681e-56
6.48868e-58
1.78313e-59
4.3236e-61
9.73918e-63
2.0126e-64
3.80477e-66
6.76071e-68
1.09632e-69
1.61746e-71
2.19441e-73
2.65833e-75
2.84206e-77
2.6674e-79
2.12161e-81
1.37491e-83
6.83315e-86
2.33311e-88
3.79479e-91
3.62536e-58
1.25741e-59
3.69574e-61
9.49729e-63
2.24722e-64
4.84007e-66
9.47265e-68
1.73271e-69
2.8786e-71
4.33324e-73
5.9776e-75
7.34108e-77
7.93614e-79
7.51478e-81
6.01854e-83
3.92039e-85
1.95528e-87
6.69148e-90
1.08392e-92
6.17172e-60
2.36438e-61
7.45905e-63
2.03761e-64
5.07804e-66
1.14263e-67
2.32001e-69
4.37668e-71
7.46132e-73
1.14762e-74
1.61165e-76
2.00859e-78
2.19754e-80
2.10086e-82
1.69512e-84
1.11029e-86
5.55834e-89
1.90665e-91
3.07567e-94
1.04136e-61
4.32799e-63
1.47189e-64
4.28752e-66
1.12822e-67
2.65777e-69
5.60839e-71
1.09285e-72
1.91434e-74
3.0119e-76
4.31014e-78
5.4557e-80
6.04476e-82
5.83746e-84
4.74715e-86
3.12742e-88
1.57181e-90
5.40425e-93
8.68115e-96
1.69832e-63
7.74584e-65
2.8529e-66
8.88843e-68
2.47511e-69
6.11489e-71
1.34296e-72
2.7062e-74
4.87571e-76
7.85344e-78
1.14601e-79
1.47413e-81
1.65483e-83
1.61489e-85
1.32397e-87
8.7747e-90
4.42782e-92
1.52586e-94
2.44072e-97
2.63905e-65
1.34167e-66
5.41015e-68
1.81362e-69
5.36904e-71
1.39625e-72
3.19813e-74
6.66995e-76
1.23681e-77
2.04058e-79
3.03773e-81
3.97225e-83
4.51921e-85
4.45749e-87
3.68482e-89
2.45703e-91
1.24489e-93
4.29941e-96
6.84797e-99
7.90546e-67
3.06695e-68
1.00082e-69
2.9009e-71
7.48691e-73
1.70963e-74
3.74966e-76
8.11707e-78
1.55275e-79
2.62926e-81
3.99951e-83
5.32403e-85
6.14607e-87
6.13366e-89
5.11732e-91
3.43595e-93
1.74931e-95
6.05933e-98
9.62067e-101
)
;

boundaryField
{
    leftWall
    {
        type            zeroGradient;
    }
    rightWall
    {
        type            zeroGradient;
    }
    lowerWall
    {
        type            zeroGradient;
    }
    atmosphere
    {
        type            inletOutlet;
        inletValue      uniform 0;
        value           nonuniform List<scalar> 
46
(
0
0
0
0
0
0
0
0
0
0
0
0
0
0
0
0
0
0
0
0
9.56536e-62
5.43373e-60
4.29168e-61
3.42163e-62
2.7738e-63
2.24648e-64
1.63958e-65
7.90546e-67
3.06695e-68
1.00082e-69
2.9009e-71
7.48691e-73
1.70963e-74
3.74966e-76
8.11707e-78
1.55275e-79
2.62926e-81
3.99951e-83
5.32403e-85
6.14607e-87
6.13366e-89
5.11732e-91
3.43595e-93
1.74931e-95
6.05933e-98
9.62067e-101
)
;
    }
    defaultFaces
    {
        type            empty;
    }
}


// ************************************************************************* //
