/*--------------------------------*- C++ -*----------------------------------*\
| =========                 |                                                 |
| \\      /  F ield         | OpenFOAM: The Open Source CFD Toolbox           |
|  \\    /   O peration     | Version:  5.x                                   |
|   \\  /    A nd           | Web:      www.OpenFOAM.org                      |
|    \\/     M anipulation  |                                                 |
\*---------------------------------------------------------------------------*/
FoamFile
{
    version     2.0;
    format      ascii;
    class       surfaceScalarField;
    location    "0.05";
    object      alphaPhi10;
}
// * * * * * * * * * * * * * * * * * * * * * * * * * * * * * * * * * * * * * //

dimensions      [0 3 -1 0 0 0 0];

internalField   nonuniform List<scalar> 
4432
(
2.95348e-06
-2.95348e-06
6.06499e-06
-3.11158e-06
9.21579e-06
-3.15079e-06
1.25075e-05
-3.29175e-06
1.60098e-05
-3.50238e-06
1.98046e-05
-3.79472e-06
2.40018e-05
-4.19717e-06
2.87576e-05
-4.75581e-06
3.43095e-05
-5.55186e-06
4.10116e-05
-6.70213e-06
4.97116e-05
-8.69998e-06
6.05211e-05
-1.08095e-05
7.56939e-05
-1.51728e-05
6.94984e-05
-1.98472e-05
6.85586e-06
-6.78829e-06
3.89224e-07
1.52771e-06
9.24976e-08
2.97257e-07
1.67636e-08
7.57633e-08
2.21951e-09
1.45499e-08
2.12517e-10
2.00842e-09
1.5055e-11
1.97822e-10
5.99791e-13
1.45386e-11
6.1275e-13
2.94913e-06
-5.90262e-06
6.05325e-06
-6.21579e-06
9.19662e-06
-6.29419e-06
1.24785e-05
-6.57362e-06
1.59671e-05
-6.99103e-06
1.97423e-05
-7.56983e-06
2.39103e-05
-8.36515e-06
2.86214e-05
-9.46682e-06
3.40903e-05
-1.10207e-05
4.06863e-05
-1.32982e-05
4.89062e-05
-1.69199e-05
5.91925e-05
-2.10957e-05
6.78881e-05
-2.94258e-05
3.48335e-05
-3.02969e-05
3.08182e-06
-7.03295e-06
1.26181e-06
4.07378e-07
4.21888e-07
4.6396e-07
7.88034e-08
2.27212e-07
1.04665e-08
4.67199e-08
9.31744e-10
6.87213e-09
5.84589e-11
6.71547e-10
1.84546e-12
5.3557e-11
2.49704e-12
2.93162e-06
-8.83424e-06
6.01313e-06
-9.2973e-06
9.13269e-06
-9.41377e-06
1.2386e-05
-9.82693e-06
1.58383e-05
-1.04433e-05
1.95645e-05
-1.12961e-05
2.36632e-05
-1.24639e-05
2.827e-05
-1.40736e-05
3.35711e-05
-1.63219e-05
3.98849e-05
-1.96119e-05
4.75226e-05
-2.45577e-05
5.74027e-05
-3.09758e-05
5.692e-05
-4.33688e-05
9.77506e-06
-2.84397e-05
1.3459e-06
-4.21282e-06
4.69132e-07
7.38218e-08
1.18959e-07
1.55646e-07
2.432e-09
7.681e-08
-2.66806e-09
1.20227e-08
-2.089e-10
1.68035e-09
-1.87644e-11
2.47599e-10
-1.0574e-12
2.53806e-11
1.45461e-12
2.90508e-06
-1.17393e-05
5.9532e-06
-1.23454e-05
9.03732e-06
-1.24979e-05
1.22484e-05
-1.3038e-05
1.5647e-05
-1.38418e-05
1.93015e-05
-1.49506e-05
2.32995e-05
-1.64619e-05
2.77565e-05
-1.85307e-05
3.28248e-05
-2.13902e-05
3.87436e-05
-2.55306e-05
4.56928e-05
-3.15069e-05
5.44195e-05
-3.97025e-05
4.35592e-05
-5.3496e-05
3.62599e-06
-2.20699e-05
8.18888e-07
-2.84327e-06
2.10271e-07
9.61153e-08
4.18365e-08
8.95509e-08
5.03919e-09
1.72873e-08
2.04658e-11
2.63477e-09
-5.72793e-11
5.62098e-10
-9.5238e-12
9.35481e-11
-6.73876e-13
1.13847e-11
7.84047e-13
2.8699e-06
-1.46091e-05
5.87429e-06
-1.53497e-05
8.91199e-06
-1.55357e-05
1.2068e-05
-1.6194e-05
1.53971e-05
-1.7171e-05
1.89598e-05
-1.85133e-05
2.28302e-05
-2.03323e-05
2.71014e-05
-2.28018e-05
3.18863e-05
-2.61751e-05
3.73429e-05
-3.09872e-05
4.35228e-05
-3.76868e-05
5.08826e-05
-4.70622e-05
3.22486e-05
-5.89663e-05
2.30333e-06
-1.68521e-05
3.46274e-07
-1.73194e-06
4.9626e-08
1.34077e-07
1.18302e-08
4.69538e-08
1.94546e-09
8.30655e-09
7.74648e-11
1.12728e-09
-1.88308e-11
1.98029e-10
-4.57333e-12
3.45593e-11
-3.84779e-13
4.78308e-12
4.0279e-13
2.82652e-06
-1.74357e-05
5.7776e-06
-1.83007e-05
8.75877e-06
-1.85169e-05
1.18481e-05
-1.92833e-05
1.50939e-05
-2.04168e-05
1.85477e-05
-2.1967e-05
2.22692e-05
-2.40538e-05
2.63282e-05
-2.68608e-05
3.07962e-05
-3.06432e-05
3.5762e-05
-3.5953e-05
4.11477e-05
-4.30726e-05
4.72151e-05
-5.31296e-05
2.35609e-05
-6.09691e-05
1.5059e-06
-1.26173e-05
1.06612e-07
-8.27626e-07
8.18945e-09
1.22579e-07
2.50779e-09
2.30634e-08
6.06398e-10
3.49951e-09
4.47188e-11
4.74565e-10
-5.32352e-12
7.49867e-11
-1.8931e-12
1.28764e-11
-1.96599e-13
1.96435e-12
2.06357e-13
2.77579e-06
-2.02115e-05
5.66487e-06
-2.11898e-05
8.58059e-06
-2.14326e-05
1.15933e-05
-2.2296e-05
1.47444e-05
-2.35679e-05
1.80758e-05
-2.52985e-05
2.16332e-05
-2.76111e-05
2.54634e-05
-3.06911e-05
2.96004e-05
-3.47803e-05
3.40738e-05
-4.04263e-05
3.86723e-05
-4.76711e-05
4.35639e-05
-5.80212e-05
1.70569e-05
-6.10013e-05
9.29201e-07
-9.42333e-06
1.76175e-08
-2.08221e-07
3.00991e-10
9.28099e-08
5.61773e-10
1.20346e-08
1.8065e-10
1.54134e-09
1.86793e-11
2.09916e-10
-1.07923e-12
3.10231e-11
-6.81081e-13
5.08364e-12
-9.43794e-14
8.38911e-13
1.12074e-13
2.719e-06
-2.29305e-05
5.53758e-06
-2.40083e-05
8.38036e-06
-2.42754e-05
1.13084e-05
-2.52241e-05
1.43559e-05
-2.66154e-05
1.75557e-05
-2.84982e-05
2.09398e-05
-3.09953e-05
2.45348e-05
-3.42861e-05
2.83477e-05
-3.85932e-05
3.23779e-05
-4.44565e-05
3.62023e-05
-5.14955e-05
3.99988e-05
-6.18176e-05
1.24452e-05
-6.02174e-05
4.55682e-07
-7.34466e-06
-6.4479e-09
8.31422e-08
-9.81705e-10
6.5755e-08
7.21029e-11
6.90637e-09
3.99394e-11
7.51274e-10
5.41737e-12
9.54056e-11
-1.97655e-13
1.33638e-11
-2.17368e-13
2.1033e-12
-4.01688e-14
4.01572e-13
7.37069e-14
4.16739e-30
-1.25279e-29
9.05248e-32
-7.32412e-31
1.05463e-32
-1.40532e-32
1.86183e-34
-2.55776e-33
1.25271e-36
-1.1529e-35
1.1649e-38
9.25536e-39
5.32793e-40
3.06732e-40
5.77004e-42
9.64626e-42
1.06487e-43
2.40485e-43
1.74936e-45
5.12695e-45
2.51635e-47
9.51378e-47
3.1115e-49
1.53996e-48
3.2287e-51
2.15462e-50
2.71815e-53
2.56699e-52
1.76712e-55
2.53441e-54
8.17925e-58
1.99952e-56
2.31805e-60
1.1814e-58
2.75414e-63
4.66806e-61
9.19214e-64
4.64744e-28
-2.24913e-27
8.33212e-30
-1.34389e-28
1.10523e-30
-2.58524e-30
2.14359e-32
-2.8067e-31
1.54425e-34
-1.3219e-33
1.57177e-36
4.4452e-36
4.17362e-38
1.5955e-37
7.99147e-40
5.11401e-39
1.50966e-41
1.30322e-40
2.53616e-43
2.83965e-42
3.73109e-45
5.39095e-44
4.71836e-47
8.92633e-46
5.00733e-49
1.27744e-47
4.3111e-51
1.55522e-49
2.86633e-53
1.57041e-51
1.35678e-55
1.2666e-53
3.93313e-58
7.65758e-56
6.22278e-61
3.09319e-58
6.22951e-61
2.58893e-26
-1.68502e-25
4.43236e-28
-1.02979e-26
5.55111e-29
-1.96808e-28
1.18202e-30
-1.47057e-29
8.71231e-33
-6.80151e-32
9.95838e-35
4.11194e-34
2.45865e-36
1.52905e-35
4.97405e-38
4.819e-37
9.35373e-40
1.218e-38
1.56361e-41
2.6379e-40
2.28863e-43
4.98016e-42
2.87918e-45
8.19954e-44
3.03941e-47
1.16696e-45
2.60287e-49
1.41296e-47
1.72136e-51
1.41935e-49
9.10012e-54
1.13853e-51
3.19253e-56
6.86005e-54
5.45768e-59
2.75786e-56
5.51806e-59
9.72376e-25
-7.64817e-24
1.68164e-26
-4.79567e-25
1.78094e-27
-9.0098e-27
4.14736e-29
-4.76957e-28
3.004e-31
-1.93513e-30
4.39393e-33
2.22466e-32
1.05313e-34
9.09379e-34
2.16384e-36
2.81464e-35
4.06064e-38
7.06244e-37
6.76966e-40
1.52268e-38
9.87877e-42
2.86409e-40
1.23874e-43
4.69909e-42
1.30317e-45
6.66536e-44
1.19832e-47
8.04274e-46
8.78918e-50
8.05771e-48
4.79038e-52
6.45342e-50
1.72065e-54
3.87284e-52
3.03503e-57
1.55011e-54
3.08941e-57
2.73677e-23
-2.38864e-22
4.92097e-25
-1.53197e-23
3.88535e-26
-2.82913e-25
1.00053e-27
-1.03322e-26
7.00771e-30
-2.77736e-29
1.48097e-31
8.3941e-31
3.46926e-33
3.87427e-32
7.17398e-35
1.17529e-33
1.34358e-36
2.92548e-35
2.23376e-38
6.27678e-37
3.24916e-40
1.17605e-38
4.28964e-42
1.92243e-40
4.84091e-44
2.71916e-42
4.5094e-46
3.2716e-44
3.33667e-48
3.26757e-46
1.83683e-50
2.60537e-48
6.68442e-53
1.55624e-50
1.20014e-55
6.20047e-53
1.23078e-55
6.01319e-22
-5.66679e-21
1.14824e-23
-3.7815e-22
5.48491e-25
-6.56504e-24
1.62697e-26
-1.53601e-25
1.50108e-28
1.63035e-29
4.013e-30
3.01548e-29
9.0832e-32
1.2617e-30
1.89031e-33
3.7474e-32
3.53276e-35
9.24749e-34
6.06013e-37
1.97375e-35
9.34093e-39
3.685e-37
1.24524e-40
6.00579e-39
1.4082e-42
8.46022e-41
1.31706e-44
1.01373e-42
9.78442e-47
1.00791e-44
5.41443e-49
7.99484e-47
1.98484e-51
4.75131e-49
3.60037e-54
1.88375e-51
3.7228e-54
1.22196e-20
-3.17355e-19
2.22745e-22
-3.90877e-20
4.97101e-24
-2.30768e-22
1.3669e-25
-1.8302e-24
3.38287e-27
7.1601e-27
8.59571e-29
8.45886e-28
1.97262e-30
3.2745e-29
4.10221e-32
9.52434e-31
8.05682e-34
2.32902e-32
1.42016e-35
4.94907e-34
2.19057e-37
9.20199e-36
2.92014e-39
1.49285e-37
3.30446e-41
2.09303e-39
3.09283e-43
2.49584e-41
2.29951e-45
2.46753e-43
1.27483e-47
1.94615e-45
4.68853e-50
1.15021e-47
8.54924e-53
4.53579e-50
8.92017e-53
4.4504e-19
-9.78114e-18
3.5717e-21
-2.74219e-19
6.98351e-23
-5.1452e-21
1.92428e-24
-4.51922e-23
5.1497e-26
2.32503e-25
1.30853e-27
1.56671e-26
3.00881e-29
5.6893e-28
6.43262e-31
1.62371e-29
1.28312e-32
3.94056e-31
2.26024e-34
8.33262e-33
3.48045e-36
1.54232e-34
4.63078e-38
2.49076e-36
5.22986e-40
3.4753e-38
4.88196e-42
4.12086e-40
3.62123e-44
4.05023e-42
2.00401e-46
3.17572e-44
7.36306e-49
1.86618e-46
1.34281e-51
7.31838e-49
1.43182e-51
5.56716e-06
-2.84977e-05
1.13077e-05
-2.97489e-05
1.7086e-05
-3.00537e-05
2.30071e-05
-3.11451e-05
2.91209e-05
-3.27292e-05
3.54695e-05
-3.48469e-05
4.20845e-05
-3.76103e-05
4.89703e-05
-4.11719e-05
5.60998e-05
-4.57228e-05
6.32379e-05
-5.15946e-05
7.04985e-05
-5.8756e-05
7.67263e-05
-6.80454e-05
1.74948e-05
-5.5718e-05
3.0686e-07
-3.93818e-06
-2.00913e-08
2.43687e-07
-2.16993e-09
3.10115e-08
-1.39986e-10
2.53442e-09
-6.18854e-12
2.25593e-10
-5.87263e-14
2.28085e-11
-1.30264e-13
2.69988e-12
-5.27776e-14
3.74349e-13
1.15392e-14
6.62751e-14
2.02475e-14
7.73092e-15
5.2265e-06
-3.37242e-05
1.05701e-05
-3.50925e-05
1.59351e-05
-3.54187e-05
2.13893e-05
-3.65993e-05
2.69545e-05
-3.82945e-05
3.26408e-05
-4.05333e-05
3.84387e-05
-4.34082e-05
4.43045e-05
-4.70376e-05
5.01424e-05
-5.15606e-05
5.57374e-05
-5.71897e-05
6.08577e-05
-6.38763e-05
6.48734e-05
-7.20611e-05
8.17911e-06
-4.96075e-05
-2.28386e-08
-1.94595e-06
-1.01207e-08
1.59569e-07
-6.96362e-10
1.4862e-08
-3.00248e-11
1.11701e-09
1.59028e-12
9.28197e-11
6.73122e-13
8.62507e-12
1.36185e-13
8.81198e-13
2.89599e-14
1.05021e-13
9.50139e-15
1.41937e-14
2.81856e-15
2.4008e-15
4.85324e-06
-3.85775e-05
9.77007e-06
-4.00093e-05
1.4695e-05
-4.03436e-05
1.96621e-05
-4.15664e-05
2.46711e-05
-4.33035e-05
2.9709e-05
-4.55712e-05
3.47407e-05
-4.84399e-05
3.96967e-05
-5.19936e-05
4.44579e-05
-5.63218e-05
4.88218e-05
-6.15536e-05
5.25238e-05
-6.75783e-05
5.51688e-05
-7.47061e-05
3.41262e-06
-4.33801e-05
-3.48438e-08
-9.41498e-07
-5.88463e-09
1.02467e-07
-4.33355e-10
6.92771e-09
-3.11782e-11
4.61545e-10
-2.10605e-12
3.47892e-11
-9.4136e-14
2.89839e-12
9.78865e-15
2.57999e-13
5.00141e-15
2.71133e-14
2.39608e-15
3.17587e-15
4.43149e-16
3.39247e-16
4.46097e-06
-4.30384e-05
8.93884e-06
-4.44872e-05
1.34148e-05
-4.48196e-05
1.78946e-05
-4.60462e-05
2.2362e-05
-4.7771e-05
2.67893e-05
-4.99985e-05
3.11279e-05
-5.27784e-05
3.52991e-05
-5.61648e-05
3.91847e-05
-6.02075e-05
4.26077e-05
-6.49766e-05
4.53538e-05
-7.03245e-05
4.71706e-05
-7.65229e-05
1.45201e-06
-3.77035e-05
-2.5487e-08
-3.876e-07
-2.62595e-09
6.66566e-08
-1.79413e-10
3.51518e-09
-1.31472e-11
2.03713e-10
-9.54792e-13
1.36331e-11
-5.4162e-14
1.00656e-12
7.95836e-16
8.26808e-14
2.15534e-15
6.80794e-15
4.8244e-16
7.89914e-16
7.8276e-17
4.00291e-17
4.06212e-06
-4.71005e-05
8.10286e-06
-4.85279e-05
1.21351e-05
-4.88518e-05
1.6142e-05
-5.00531e-05
2.00972e-05
-5.17261e-05
2.39649e-05
-5.38662e-05
2.76916e-05
-5.65051e-05
3.11999e-05
-5.96731e-05
3.43838e-05
-6.33914e-05
3.70986e-05
-6.76914e-05
3.91864e-05
-7.24122e-05
4.04869e-05
-7.78233e-05
4.09593e-07
-3.26839e-05
-1.86012e-08
-8.28529e-08
-1.36847e-09
4.2763e-08
-8.20082e-11
1.79341e-09
-5.53255e-12
9.23273e-11
-3.77078e-13
5.50559e-12
-2.11577e-14
3.65157e-13
-2.98841e-16
2.68578e-14
6.09375e-16
2.01979e-15
9.52666e-17
1.92914e-16
1.61309e-17
5.89678e-18
3.6667e-06
-5.07672e-05
7.28245e-06
-5.21437e-05
1.08861e-05
-5.24555e-05
1.4444e-05
-5.3611e-05
1.79241e-05
-5.52062e-05
2.12875e-05
-5.72296e-05
2.44811e-05
-5.96987e-05
2.74344e-05
-6.26264e-05
3.00575e-05
-6.60146e-05
3.22367e-05
-6.98705e-05
3.38602e-05
-7.40358e-05
3.48284e-05
-7.87915e-05
2.95676e-07
-2.82923e-05
-1.63662e-08
1.69741e-07
-7.73535e-10
2.44255e-08
-3.94644e-11
8.89292e-10
-2.38829e-12
4.2048e-11
-1.45763e-13
2.26982e-12
-7.12673e-15
1.36398e-13
6.51692e-16
8.66493e-15
1.68805e-16
6.62108e-16
1.71297e-17
4.9984e-17
3.64614e-18
8.70516e-19
3.28226e-06
-5.40495e-05
6.4921e-06
-5.53535e-05
9.68869e-06
-5.5652e-05
1.28267e-05
-5.6749e-05
1.58717e-05
-5.82512e-05
1.87849e-05
-6.01428e-05
2.15169e-05
-6.24307e-05
2.4006e-05
-6.51155e-05
2.61785e-05
-6.81871e-05
2.79461e-05
-7.16381e-05
2.92309e-05
-7.53205e-05
2.99669e-05
-7.95275e-05
1.63104e-07
-2.44429e-05
-9.21445e-09
3.17586e-07
-3.48659e-10
1.48792e-08
-1.69045e-11
4.98321e-10
-9.61771e-13
2.12786e-11
-5.33259e-14
1.02967e-12
-2.33176e-15
5.53037e-14
3.25406e-16
2.96309e-15
4.61852e-17
2.10089e-16
3.43211e-18
1.38132e-17
8.88651e-19
1.067e-19
2.914e-06
-5.69635e-05
5.7411e-06
-5.81806e-05
8.55572e-06
-5.84666e-05
1.1305e-05
-5.94983e-05
1.39546e-05
-6.09008e-05
1.64679e-05
-6.2656e-05
1.88005e-05
-6.47633e-05
2.08999e-05
-6.72149e-05
2.27064e-05
-6.99935e-05
2.41519e-05
-7.30837e-05
2.5182e-05
-7.63505e-05
2.57492e-05
-8.00946e-05
4.2339e-08
-2.1064e-05
-3.72843e-09
3.48293e-07
-1.43323e-10
1.09306e-08
-7.02026e-12
3.36076e-10
-3.7888e-13
1.28599e-11
-1.91694e-14
5.4902e-13
-7.43076e-16
2.59009e-14
1.15559e-16
1.17624e-15
1.26222e-17
7.39105e-17
7.51846e-19
4.22292e-18
2.37193e-19
1.10688e-20
2.56505e-06
-5.95285e-05
5.03447e-06
-6.065e-05
7.49348e-06
-6.09256e-05
9.88517e-06
-6.189e-05
1.21769e-05
-6.31926e-05
1.43352e-05
-6.48143e-05
1.63212e-05
-6.67493e-05
1.80911e-05
-6.89847e-05
1.95968e-05
-7.14992e-05
2.07858e-05
-7.42726e-05
2.16196e-05
-7.71843e-05
2.20615e-05
-8.05365e-05
-2.24907e-08
-1.81003e-05
-2.02385e-09
3.12606e-07
-7.61091e-11
8.62515e-09
-3.53407e-12
2.46987e-10
-1.73253e-13
8.72287e-12
-7.7158e-15
3.25399e-13
-2.82799e-16
1.35906e-14
4.17139e-17
5.50749e-16
3.70598e-18
2.96238e-17
1.81596e-19
1.44567e-18
7.02074e-20
2.95228e-22
2.23691e-06
-6.17655e-05
4.37378e-06
-6.27869e-05
6.50333e-06
-6.30552e-05
8.56706e-06
-6.39537e-05
1.05351e-05
-6.51606e-05
1.23776e-05
-6.66569e-05
1.40613e-05
-6.8433e-05
1.55499e-05
-7.04733e-05
1.68052e-05
-7.27544e-05
1.77865e-05
-7.52539e-05
1.84666e-05
-7.78644e-05
1.88143e-05
-8.08842e-05
-4.75639e-08
-1.55016e-05
-2.02457e-09
2.53378e-07
-6.1484e-11
6.24171e-09
-2.42429e-12
1.72772e-10
-1.02369e-13
5.77182e-12
-3.79738e-15
1.95809e-13
-6.57253e-17
7.26587e-15
1.68208e-17
2.80569e-16
1.05014e-18
1.26202e-17
4.7622e-20
5.27012e-19
2.21838e-20
-4.36633e-22
1.92978e-06
-6.36952e-05
3.7582e-06
-6.46152e-05
5.58311e-06
-6.48801e-05
7.34627e-06
-6.57169e-05
9.02089e-06
-6.68353e-05
1.05813e-05
-6.82172e-05
1.19992e-05
-6.9851e-05
1.32452e-05
-7.17192e-05
1.42889e-05
-7.37981e-05
1.50989e-05
-7.60639e-05
1.56573e-05
-7.84228e-05
1.59325e-05
-8.11594e-05
-5.24864e-08
-1.3215e-05
-1.78631e-09
1.91929e-07
-4.92586e-11
4.30181e-09
-1.74339e-12
1.13916e-10
-6.4971e-14
3.60865e-12
-2.11584e-15
1.13657e-13
2.62263e-17
3.76187e-15
7.08039e-18
1.38116e-16
3.14285e-19
5.24502e-18
1.29338e-20
1.90976e-19
6.98688e-21
-2.58773e-22
1.643e-06
-6.53382e-05
3.18538e-06
-6.61576e-05
4.7285e-06
-6.64233e-05
6.21588e-06
-6.72043e-05
7.62375e-06
-6.82431e-05
8.93038e-06
-6.95238e-05
1.01125e-05
-7.10331e-05
1.11463e-05
-7.2753e-05
1.20079e-05
-7.46598e-05
1.26719e-05
-7.67278e-05
1.31315e-05
-7.88824e-05
1.33465e-05
-8.13743e-05
-4.85347e-08
-1.12104e-05
-1.15026e-09
1.3694e-07
-3.35372e-11
2.78135e-09
-1.10958e-12
7.50441e-11
-3.79823e-14
2.24217e-12
-1.1426e-15
6.50479e-14
2.84802e-17
1.92136e-15
2.77791e-18
6.36113e-17
9.46248e-20
2.09212e-18
3.40444e-21
6.61371e-20
2.091e-21
-1.09305e-22
1.37474e-06
-6.67129e-05
2.65137e-06
-6.74342e-05
3.9332e-06
-6.7705e-05
5.16609e-06
-6.84371e-05
6.32961e-06
-6.94066e-05
7.40563e-06
-7.05998e-05
8.37567e-06
-7.2003e-05
9.22171e-06
-7.35989e-05
9.92543e-06
-7.53634e-05
1.04657e-05
-7.7268e-05
1.08444e-05
-7.92609e-05
1.09856e-05
-8.15151e-05
-3.84106e-08
-9.52026e-06
-7.32841e-10
9.38817e-08
-1.62404e-11
1.88785e-09
-5.64383e-13
5.21131e-11
-1.8341e-14
1.50859e-12
-5.24208e-16
4.07857e-14
1.63707e-17
1.05858e-15
1.00254e-18
3.03149e-17
2.72758e-20
8.3964e-19
8.35737e-22
2.23308e-20
5.92396e-22
-3.67373e-23
1.12329e-06
-6.78362e-05
2.15075e-06
-6.84612e-05
3.1883e-06
-6.87421e-05
4.18353e-06
-6.94318e-05
5.12015e-06
-7.03426e-05
5.98322e-06
-7.14622e-05
6.75835e-06
-7.27774e-05
7.43352e-06
-7.42732e-05
7.99687e-06
-7.59257e-05
8.44558e-06
-7.77156e-05
8.80247e-06
-7.96163e-05
8.78595e-06
-8.14957e-05
-2.33566e-08
-8.03559e-06
-1.66157e-10
6.63849e-08
-2.25502e-12
1.59234e-09
-9.01439e-14
4.55878e-11
-4.51719e-15
1.28593e-12
-1.57134e-16
3.25024e-14
8.13827e-18
7.34149e-16
3.44777e-19
1.69139e-17
7.63577e-21
3.72535e-19
1.89815e-22
7.80341e-21
1.63127e-22
-1.02767e-23
8.91545e-07
-6.87278e-05
1.68197e-06
-6.92482e-05
2.49094e-06
-6.95471e-05
3.26582e-06
-7.02024e-05
3.99395e-06
-7.10662e-05
4.66238e-06
-7.21256e-05
5.25912e-06
-7.33686e-05
5.77398e-06
-7.47819e-05
6.19124e-06
-7.6336e-05
6.5209e-06
-7.8037e-05
6.88649e-06
-7.99722e-05
6.26733e-06
-8.08579e-05
-3.26017e-08
-6.46526e-06
-1.20941e-10
3.09527e-08
3.40185e-12
1.34672e-09
1.69487e-13
4.522e-11
3.10774e-15
1.40201e-12
-8.97594e-17
3.60874e-14
4.21766e-18
5.63021e-16
1.30726e-19
1.01288e-17
2.1253e-21
1.67242e-19
3.93545e-23
2.58088e-21
3.99649e-23
-2.69874e-24
6.71808e-07
-6.93996e-05
1.25682e-06
-6.9808e-05
1.86871e-06
-7.01293e-05
2.4509e-06
-7.07536e-05
2.99644e-06
-7.15787e-05
3.49705e-06
-7.25907e-05
3.94443e-06
-7.37772e-05
4.32666e-06
-7.51216e-05
4.61922e-06
-7.65816e-05
4.73306e-06
-7.80961e-05
4.67478e-06
-7.98499e-05
2.12137e-06
-7.81867e-05
-1.66748e-08
-7.98075e-06
-7.63817e-10
2.253e-09
-2.11818e-11
4.76519e-10
-4.04977e-13
2.40636e-11
-1.13409e-14
9.96073e-13
-2.92562e-16
2.56599e-14
1.61653e-18
2.84818e-16
4.02076e-20
3.34847e-18
3.67293e-22
4.18236e-20
5.10751e-24
4.81792e-22
5.75719e-24
-5.5902e-25
5.01943e-07
-6.99015e-05
9.14698e-07
-7.00395e-05
1.35294e-06
-7.03546e-05
1.77528e-06
-7.09547e-05
2.16997e-06
-7.17408e-05
2.52866e-06
-7.27024e-05
2.84172e-06
-7.38254e-05
3.09526e-06
-7.50883e-05
3.30891e-06
-7.64845e-05
3.3716e-06
-7.78041e-05
3.06868e-06
-7.91406e-05
3.8859e-06
-7.82737e-05
-4.53135e-08
-1.76741e-05
1.57841e-09
-4.5543e-08
9.75973e-11
1.91453e-09
3.73772e-12
1.16389e-10
5.27901e-14
4.64308e-12
1.72252e-17
7.79476e-14
3.33626e-19
3.13422e-16
3.27397e-21
2.81767e-18
2.71249e-23
5.90654e-21
2.37258e-25
4.61114e-23
4.37307e-25
-3.84164e-26
2.69631e-07
-5.26218e-05
4.91187e-07
-5.28039e-05
7.33374e-07
-5.28326e-05
9.57706e-07
-5.28912e-05
1.15857e-06
-5.29448e-05
1.32453e-06
-5.29777e-05
1.43281e-06
-5.29545e-05
1.46808e-06
-5.28234e-05
1.39812e-06
-5.27651e-05
1.90374e-06
-5.1533e-05
2.78683e-06
-4.97852e-05
1.02507e-05
-3.49157e-05
-5.15043e-07
-1.42203e-05
9.81401e-08
-6.80881e-07
7.39418e-09
9.1756e-08
2.88597e-10
7.17731e-09
4.91392e-12
2.86689e-10
2.19101e-14
4.93069e-12
1.85852e-17
2.2213e-14
-1.94252e-21
2.20725e-17
-1.09769e-24
3.77148e-22
-1.28177e-26
2.79279e-24
2.54015e-26
-2.00715e-28
-1.36943e-07
-1.20478e-25
-2.91645e-07
-2.01211e-23
-4.28981e-07
-1.64571e-21
-5.75822e-07
-8.79827e-20
-7.20664e-07
-3.45027e-18
-8.5905e-07
-1.05245e-16
-9.64783e-07
-2.57357e-15
-1.00109e-06
-5.04968e-14
-1.06904e-06
-8.45771e-13
-1.66976e-07
-1.2819e-11
2.20749e-06
-1.6908e-10
1.33992e-06
-1.97404e-09
3.6969e-06
-2.15432e-08
4.67662e-08
-1.93215e-07
1.64346e-08
1.38679e-07
8.26193e-10
2.34021e-08
4.77504e-12
1.11465e-09
-1.99375e-14
9.71829e-12
-2.04191e-17
2.29854e-15
-2.04956e-22
1.70246e-18
-3.55677e-25
2.77225e-23
-3.62746e-27
1.97289e-25
1.7164e-27
-6.32058e-29
-9.6001e-26
-2.44768e-26
-1.60107e-23
-4.24373e-24
-1.28783e-21
-3.7996e-22
-6.70994e-20
-2.26516e-20
-2.53355e-18
-1.0085e-18
-7.3058e-17
-3.56435e-17
-1.64935e-15
-1.02383e-15
-2.93277e-14
-2.34277e-14
-3.9169e-13
-4.94794e-13
-3.30429e-12
-1.00808e-11
-1.20878e-12
-1.73437e-10
1.88751e-11
-2.01761e-09
1.72763e-10
-2.18771e-08
2.56065e-08
-3.83654e-08
-2.01822e-08
9.28931e-08
-1.04834e-09
7.72855e-09
-9.05243e-12
1.54277e-10
-2.1504e-15
6.70625e-13
-1.6284e-18
1.49411e-16
-1.39754e-23
7.57673e-20
-5.01994e-26
2.20278e-24
-4.58388e-28
1.42157e-26
1.14052e-28
-7.41568e-30
-2.25893e-26
-1.88748e-27
-3.98185e-24
-3.22563e-25
-3.62599e-22
-2.77912e-23
-2.19843e-20
-1.59488e-21
-9.95195e-19
-6.81039e-20
-3.5753e-17
-2.29672e-18
-1.04381e-15
-6.3438e-17
-2.43148e-14
-1.46672e-15
-5.1828e-13
-3.15876e-14
-1.04871e-11
-6.12819e-13
-1.79771e-10
-9.71862e-12
-2.11845e-09
-1.26605e-10
-2.25726e-08
-8.84571e-10
-5.34548e-08
-1.91798e-09
-7.64667e-09
2.87266e-09
-1.35445e-10
6.06151e-10
-5.76419e-13
2.26611e-11
-1.37289e-16
9.48546e-14
-7.28368e-20
1.80027e-17
-9.89387e-25
2.98207e-21
-5.3306e-27
1.53823e-25
-4.41771e-29
9.2144e-28
6.9218e-30
-6.5708e-31
-1.82355e-27
-6.39373e-29
-3.17128e-25
-1.06475e-26
-2.77928e-23
-8.858e-25
-1.62189e-21
-4.89373e-23
-7.03901e-20
-2.00545e-21
-2.41181e-18
-6.46292e-20
-6.67646e-17
-1.71398e-18
-1.54804e-15
-3.91854e-17
-3.28581e-14
-1.18184e-15
-6.24452e-13
-3.36635e-14
-1.0018e-11
-4.64666e-13
-1.32971e-10
-4.91122e-12
-1.12259e-09
-1.98341e-11
-3.27038e-09
-8.44469e-11
-6.02957e-10
1.0434e-10
-2.15505e-11
2.2054e-11
-8.92751e-14
1.21758e-12
-1.74006e-17
5.92754e-15
-3.40062e-21
1.04404e-18
-9.75177e-26
9.34159e-23
-4.56572e-28
9.12514e-27
-3.52197e-30
5.28348e-29
3.79882e-31
-4.85508e-32
-6.34037e-29
-5.3361e-31
-1.07395e-26
-8.70742e-29
-9.01443e-25
-7.1403e-27
-5.00735e-23
-3.89888e-25
-2.0633e-21
-1.57664e-23
-6.68725e-20
-5.00262e-22
-1.78325e-18
-1.30142e-20
-4.09575e-17
-2.82125e-19
-1.21977e-15
-5.90139e-18
-3.46793e-14
-1.96223e-16
-4.94266e-13
-4.26496e-15
-5.33906e-12
-4.84205e-14
-3.07784e-11
-2.20248e-13
-1.22734e-10
-2.38338e-12
-2.2171e-11
1.64618e-12
-1.18188e-12
7.93641e-13
-5.70442e-15
4.23279e-14
-1.06727e-18
3.06982e-16
-9.5716e-23
3.89634e-20
-6.71656e-27
4.86362e-24
-3.22993e-29
4.67636e-28
-2.37974e-31
2.64792e-30
1.86318e-32
-3.11697e-33
-5.32716e-31
-8.93687e-34
-8.69991e-29
-1.48042e-31
-7.12818e-27
-1.23585e-29
-3.89258e-25
-6.86222e-28
-1.57597e-23
-2.82138e-26
-5.01203e-22
-9.10416e-25
-1.30765e-20
-2.40592e-23
-2.84624e-19
-5.26011e-22
-5.97999e-18
-9.97276e-21
-1.95175e-16
-1.90602e-19
-4.28896e-15
-5.49529e-18
-5.06858e-14
-1.21951e-16
-2.51425e-13
-8.25713e-16
-2.43809e-12
-1.40126e-14
-8.04591e-13
1.51871e-15
-4.20517e-14
1.30459e-14
-3.08134e-16
7.41192e-16
-4.611e-20
3.52051e-18
-4.86241e-24
5.2288e-22
-4.00661e-28
2.41539e-25
-1.93633e-30
2.21058e-29
-1.37754e-32
1.1919e-31
8.4067e-34
-1.73538e-34
-5.64655e-34
-4.57308e-37
-9.9599e-32
-8.02519e-35
-8.67861e-30
-6.95052e-33
-5.02092e-28
-3.98675e-31
-2.14515e-26
-1.68868e-29
-7.19697e-25
-5.61949e-28
-1.9644e-23
-1.52283e-26
-4.45165e-22
-3.42829e-25
-8.74848e-21
-6.60127e-24
-1.67767e-19
-1.0797e-22
-4.76525e-18
-1.55746e-21
-1.16088e-16
-2.74087e-20
-9.29735e-16
-4.83942e-19
-1.4935e-14
-1.27016e-17
-1.34122e-14
-5.31153e-17
-7.41271e-16
9.1742e-17
-3.81975e-18
1.08373e-17
-5.58667e-22
6.21801e-20
-2.32786e-25
1.29261e-23
-2.05176e-29
8.63975e-27
-1.01914e-31
8.47867e-31
-7.13031e-34
4.49193e-33
3.58248e-35
-8.43033e-36
-4.56183e-37
-1.12519e-39
-8.12747e-35
-2.04528e-37
-7.07751e-33
-1.83694e-35
-4.08439e-31
-1.09365e-33
-1.74262e-29
-4.81764e-32
-5.84246e-28
-1.67025e-30
-1.59512e-26
-4.72738e-29
-3.62037e-25
-1.11629e-27
-6.92611e-24
-2.23184e-26
-1.13587e-22
-3.82896e-25
-1.63533e-21
-5.65559e-24
-2.75181e-20
-7.15019e-23
-5.00217e-19
-6.11826e-22
-1.60449e-17
-5.27276e-21
-9.87716e-17
-2.37918e-20
-1.05404e-17
4.1452e-19
-6.07741e-20
1.54021e-19
-1.25314e-23
1.34696e-21
-8.36572e-27
3.4893e-25
-7.84596e-31
2.6846e-28
-4.05673e-33
2.89349e-32
-2.97973e-35
1.61427e-34
1.3355e-36
-3.56385e-37
-1.12477e-39
-4.25548e-43
-2.05635e-37
-8.12532e-41
-1.85555e-35
-7.67415e-39
-1.11071e-33
-4.80989e-37
-4.93019e-32
-2.23847e-35
-1.72181e-30
-8.21552e-34
-4.90691e-29
-2.46808e-32
-1.16713e-27
-6.21635e-31
-2.35217e-26
-1.33529e-29
-4.05343e-25
-2.4671e-28
-6.36951e-24
-3.86743e-27
-9.5531e-23
-5.10654e-26
-1.54174e-21
-5.70662e-25
-8.23227e-20
-6.66821e-24
-5.58843e-19
-3.83734e-23
-1.48854e-19
7.40334e-23
-1.32407e-21
8.03576e-22
-3.40108e-25
2.10999e-23
-2.6157e-28
7.31917e-27
-2.67778e-32
6.72334e-30
-1.46374e-34
8.17616e-34
-1.11399e-36
4.94887e-36
4.30985e-38
-1.31858e-38
-4.25522e-43
-2.59835e-47
-8.15846e-41
-5.2789e-45
-7.75405e-39
-5.32041e-43
-4.88755e-37
-3.55914e-41
-2.28653e-35
-1.7698e-39
-8.43528e-34
-6.95693e-38
-2.54792e-32
-2.24676e-36
-6.45426e-31
-6.11398e-35
-1.39486e-29
-1.42844e-33
-2.58923e-28
-2.88495e-32
-4.29006e-27
-4.81486e-31
-6.99085e-26
-7.02817e-30
-1.45699e-24
-9.52601e-29
-8.35263e-23
-1.11444e-27
-6.01861e-22
-1.17399e-26
-7.98189e-22
-4.87598e-26
-2.08312e-23
3.62635e-24
-7.16393e-27
2.25829e-25
-6.58446e-30
1.15515e-28
-7.58914e-34
1.3302e-31
-4.46967e-36
1.91449e-35
-3.59446e-38
1.28708e-37
1.20687e-39
-4.26224e-40
-2.59747e-47
-8.78073e-51
-5.28884e-45
-1.91596e-48
-5.33752e-43
-2.07677e-46
-3.57612e-41
-1.49563e-44
-1.78113e-39
-8.0195e-43
-7.01474e-38
-3.40828e-41
-2.2704e-36
-1.19438e-39
-6.19425e-35
-3.54367e-38
-1.45508e-33
-9.10692e-37
-2.96133e-32
-2.04055e-35
-5.22224e-31
-3.73883e-34
-1.00382e-29
-6.55687e-33
-1.77226e-28
-1.03265e-31
-3.43103e-27
-1.44714e-30
-3.57843e-25
-1.98176e-29
-3.77485e-24
-1.78246e-28
-2.23507e-25
4.90957e-27
-1.13162e-28
1.53768e-27
-1.30762e-31
1.37291e-30
-1.75584e-35
2.10002e-33
-1.15463e-37
3.71272e-37
-1.00108e-39
2.84619e-39
2.93473e-41
-1.20325e-41
-7.94776e-51
-3.34018e-56
-1.75579e-48
-8.01356e-54
-1.92051e-46
-9.51341e-52
-1.39273e-44
-7.49353e-50
-7.5227e-43
-4.40287e-48
-3.22213e-41
-2.05613e-46
-1.13903e-39
-7.94949e-45
-3.40958e-38
-2.61353e-43
-8.81889e-37
-7.45972e-42
-1.98793e-35
-1.8691e-40
-4.07032e-34
-4.12806e-39
-8.91196e-33
-8.37192e-38
-1.78824e-31
-1.52933e-36
-3.99157e-30
-2.5056e-35
-5.30972e-28
-3.61504e-34
-6.42731e-27
-4.6403e-33
-1.52301e-27
-1.09403e-32
-1.34338e-30
3.70457e-30
-2.07057e-33
1.19361e-32
-3.36242e-37
2.60983e-35
-2.52236e-39
5.96208e-39
-2.40715e-41
5.3591e-41
6.20562e-43
-2.97387e-43
-3.33926e-56
-9.17617e-60
-8.05214e-54
-2.42874e-57
-9.60432e-52
-3.18431e-55
-7.60181e-50
-2.77253e-53
-4.48856e-48
-1.80331e-51
-2.10694e-46
-9.3439e-50
-8.18633e-45
-4.01908e-48
-2.70541e-43
-1.47579e-46
-7.76431e-42
-4.72743e-45
-1.95722e-40
-1.33785e-43
-4.37321e-39
-3.36216e-42
-1.07183e-37
-7.79636e-41
-2.46626e-36
-1.65211e-39
-5.32557e-35
-3.18796e-38
-1.26891e-33
-5.56024e-37
-2.376e-31
-9.37903e-36
-3.59106e-30
-1.05652e-34
-1.16144e-32
6.96802e-33
-2.57867e-35
7.3418e-35
-5.28874e-39
2.52529e-37
-4.65853e-41
7.9314e-41
-5.00063e-43
8.61253e-43
1.13089e-44
-6.44317e-45
-9.17592e-60
-2.51068e-64
-2.43776e-57
-7.42488e-62
-3.20844e-55
-1.08756e-59
-2.80444e-53
-1.05857e-57
-1.8315e-51
-7.70796e-56
-9.52991e-50
-4.48031e-54
-4.11574e-48
-2.16713e-52
-1.51749e-46
-8.97895e-51
-4.88115e-45
-3.25873e-49
-1.38732e-43
-1.05017e-47
-3.50938e-42
-3.02314e-46
-9.27152e-41
-8.0536e-45
-2.43503e-39
-1.98502e-43
-6.02988e-38
-4.50187e-42
-1.64643e-36
-9.42868e-41
-4.00969e-34
-2.11422e-39
-7.01915e-33
-3.20348e-38
-7.03034e-35
9.04387e-37
-2.49796e-37
2.71581e-37
-6.81239e-41
1.87335e-39
-7.27302e-43
8.20433e-43
-8.98038e-45
1.16895e-44
1.74518e-46
-1.22578e-46
-2.51068e-64
-1.27947e-70
-7.44883e-62
-4.28127e-68
-1.09469e-59
-7.09345e-66
-1.06927e-57
-7.8152e-64
-7.81323e-56
-6.44814e-62
-4.55745e-54
-4.25395e-60
-2.21199e-52
-2.34041e-58
-9.19569e-51
-1.10601e-56
-3.34825e-49
-4.59356e-55
-1.08313e-47
-1.70188e-53
-3.13139e-46
-5.65935e-52
-8.79376e-45
-1.7457e-50
-2.64732e-43
-5.00654e-49
-7.54796e-42
-1.33658e-47
-2.57385e-40
-3.30228e-46
-6.80206e-38
-7.37818e-45
-1.1664e-36
-1.41974e-43
-2.62675e-37
-1.53023e-42
-1.85263e-39
3.34348e-40
-7.13999e-43
1.04244e-41
-9.59379e-45
6.87898e-45
-1.39511e-46
1.29056e-46
2.34326e-48
-2.05202e-48
-1.27937e-70
-9.8869e-75
-4.29495e-68
-3.79463e-72
-7.13677e-66
-7.21227e-70
-7.88576e-64
-9.11881e-68
-6.52523e-62
-8.64167e-66
-4.31735e-60
-6.55712e-64
-2.38224e-58
-4.15692e-62
-1.12905e-56
-2.26874e-60
-4.70251e-55
-1.09108e-58
-1.74897e-53
-4.70017e-57
-5.85639e-52
-1.82932e-55
-1.81725e-50
-6.60938e-54
-5.991e-49
-2.22285e-52
-1.99219e-47
-7.02465e-51
-6.39346e-46
-2.07274e-49
-2.07524e-44
-5.6294e-48
-1.13819e-41
-1.38874e-46
-3.32952e-40
-3.80576e-45
-1.02816e-41
2.84662e-43
-6.0746e-45
4.16259e-44
-1.06783e-46
4.66135e-47
-1.88048e-48
1.20675e-48
2.75015e-50
-3.03067e-50
-9.83511e-75
-2.75365e-81
-3.78463e-72
-1.23355e-78
-7.21106e-70
-2.73623e-76
-9.13874e-68
-4.03852e-74
-8.68093e-66
-4.47123e-72
-6.60246e-64
-3.96837e-70
-4.1952e-62
-2.94712e-68
-2.29493e-60
-1.88802e-66
-1.10558e-58
-1.06764e-64
-4.77537e-57
-5.42737e-63
-1.8771e-55
-2.51835e-61
-6.79767e-54
-1.07993e-59
-2.35256e-52
-4.32307e-58
-9.12449e-51
-1.62999e-56
-3.4214e-49
-5.79769e-55
-1.29852e-47
-1.91788e-53
-9.5051e-45
-5.85856e-52
-3.25313e-43
-1.375e-50
-4.07228e-44
-1.43011e-50
-4.17329e-47
6.64126e-47
-1.00488e-48
2.53122e-49
-2.20443e-50
9.58447e-51
2.83035e-52
-3.96061e-52
-2.75349e-81
-1.6116e-85
-1.23682e-78
-8.6133e-83
-2.75017e-76
-2.28042e-80
-4.06915e-74
-4.01874e-78
-4.51653e-72
-5.31615e-76
-4.01894e-70
-5.64318e-74
-2.99252e-68
-5.01884e-72
-1.92216e-66
-3.85616e-70
-1.08992e-64
-2.61996e-68
-5.55686e-63
-1.60349e-66
-2.58657e-61
-8.97739e-65
-1.11321e-59
-4.65691e-63
-4.47857e-58
-2.26101e-61
-1.82154e-56
-1.03492e-59
-8.10084e-55
-4.48641e-58
-3.6488e-53
-1.82868e-56
-1.6551e-51
-6.80586e-55
-1.45513e-48
-2.19477e-53
-6.09279e-47
-5.13719e-52
-2.2998e-49
1.20349e-49
-7.99667e-51
1.09137e-51
-2.25312e-52
6.46918e-53
2.56658e-54
-4.59391e-54
-1.61156e-85
-3.73282e-90
-8.63149e-83
-2.45573e-87
-2.28976e-80
-8.00441e-85
-4.04323e-78
-1.73718e-82
-5.3593e-76
-2.83167e-80
-5.70051e-74
-3.70692e-78
-5.0802e-72
-4.06996e-76
-3.91133e-70
-3.86527e-74
-2.66302e-68
-3.2508e-72
-1.63338e-66
-2.46685e-70
-9.16579e-65
-1.71545e-68
-4.76678e-63
-1.1074e-66
-2.32139e-61
-6.70587e-65
-1.06767e-59
-3.838e-63
-5.21445e-58
-2.08323e-61
-2.74935e-56
-1.07036e-59