/*--------------------------------*- C++ -*----------------------------------*\
| =========                 |                                                 |
| \\      /  F ield         | OpenFOAM: The Open Source CFD Toolbox           |
|  \\    /   O peration     | Version:  5.x                                   |
|   \\  /    A nd           | Web:      www.OpenFOAM.org                      |
|    \\/     M anipulation  |                                                 |
\*---------------------------------------------------------------------------*/
FoamFile
{
    version     2.0;
    format      ascii;
    class       volScalarField;
    location    "0.05";
    object      p;
}
// * * * * * * * * * * * * * * * * * * * * * * * * * * * * * * * * * * * * * //

dimensions      [1 -1 -2 0 0 0 0];

internalField   nonuniform List<scalar> 
2268
(
1336.32
1327.79
1309.2
1280.89
1242.5
1193.38
1132.66
1059.09
971.496
866.475
742.986
604.855
418.974
186.498
43.9173
7.78691
3.82329
3.21913
2.95624
2.70196
2.52355
2.41503
2.36411
1278.95
1270.43
1251.86
1223.59
1185.26
1136.2
1075.55
1002.03
914.465
809.18
685.418
546.33
351.413
118.376
15.5965
3.52254
3.20756
3.08824
2.87301
2.62787
2.44626
2.33878
2.28902
1223.08
1214.58
1196.06
1167.88
1129.66
1080.74
1020.22
946.827
859.351
753.699
629.586
487.968
278.97
61.6939
6.96159
2.31183
2.48873
2.70652
2.66581
2.48836
2.33558
2.23961
2.19305
1168.73
1160.25
1141.81
1113.76
1075.72
1026.99
966.707
893.546
806.254
700.324
576.103
431.46
210.569
30.3743
4.26497
1.88273
2.0538
2.34781
2.41931
2.31763
2.20329
2.12168
2.07807
1115.89
1107.44
1089.12
1061.25
1023.43
974.996
915.047
842.255
755.316
649.413
525.669
378.377
151.757
16.1757
2.9386
1.70193
1.86656
2.12307
2.20258
2.14473
2.05941
1.98916
1.9456
1064.58
1056.18
1037.99
1010.35
972.835
924.778
865.289
793.038
706.69
601.287
478.827
329.949
105.207
8.98176
2.34833
1.61766
1.77626
1.95514
2.01312
1.97678
1.90947
1.84546
1.79569
1014.78
1006.42
988.413
961.044
923.902
876.321
817.422
745.893
660.39
555.999
435.734
286.864
70.7594
5.13611
2.01103
1.55576
1.69175
1.80066
1.84135
1.81488
1.75715
1.69337
1.62579
966.439
958.13
940.328
913.279
876.571
829.555
771.368
700.732
616.305
513.405
395.88
248.726
46.642
2.93772
1.69002
1.49237
1.58674
1.65445
1.68261
1.6596
1.60553
1.53726
1.43489
1.09325
1.08537
1.06899
1.04742
1.02339
0.998716
0.974501
0.951493
0.930076
0.910545
0.892959
0.877419
0.86388
0.852373
0.842822
0.835255
0.829583
0.825847
0.823952
1.0355
1.02766
1.01093
0.98898
0.964645
0.939769
0.915427
0.892349
0.870889
0.85134
0.833742
0.818202
0.804662
0.793162
0.783612
0.776049
0.770378
0.766649
0.764756
0.978895
0.971153
0.953692
0.930946
0.906015
0.880745
0.85615
0.83292
0.811371
0.791775
0.774158
0.758611
0.745072
0.733577
0.724035
0.716479
0.710815
0.707091
0.705203
0.923375
0.915936
0.897298
0.873292
0.847458
0.821602
0.796636
0.773183
0.75151
0.731846
0.7142
0.698644
0.685108
0.673621
0.664091
0.656547
0.650893
0.647176
0.645294
0.869038
0.862151
0.841737
0.815956
0.788909
0.762295
0.736854
0.713121
0.691293
0.671545
0.653865
0.638298
0.624768
0.613293
0.603782
0.596252
0.590614
0.586904
0.585031
0.815389
0.810025
0.786973
0.758834
0.730276
0.702761
0.676764
0.652706
0.630703
0.610862
0.593147
0.57757
0.564052
0.552594
0.543107
0.535596
0.529978
0.526277
0.524414
0.75918
0.759548
0.732965
0.701777
0.67157
0.642928
0.616317
0.59191
0.569722
0.549787
0.532039
0.516458
0.502959
0.491523
0.482067
0.47458
0.468985
0.465296
0.463445
0.703649
0.710345
0.67958
0.644573
0.612396
0.582691
0.555457
0.530698
0.50833
0.488307
0.470534
0.454958
0.441487
0.430082
0.420663
0.413205
0.407638
0.403963
0.402124
893.264
885.039
867.626
841.168
805.272
759.328
702.517
633.662
551.432
452.019
338.7
196.375
24.9531
1.94706
1.29423
1.3634
1.40653
1.43989
1.45177
1.42806
1.37312
1.2863
1.09631
800.564
792.567
775.845
750.466
716.07
672.131
617.953
552.572
474.945
382.143
278.027
147.272
10.0864
1.34847
1.01047
1.14126
1.16181
1.17389
1.17169
1.14455
1.09176
1.01293
0.908173
714.54
706.838
690.95
666.875
634.298
592.798
541.828
480.664
408.605
323.505
229.764
112.134
4.0744
1.04582
0.857948
0.916079
0.920949
0.923682
0.91484
0.888559
0.845045
0.785372
0.713984
635.014
627.677
612.748
590.167
559.676
520.966
473.642
417.215
351.297
274.394
191.185
86.6583
1.78783
0.676512
0.671614
0.688048
0.686406
0.684637
0.673289
0.649498
0.613254
0.564778
0.505092
561.725
554.813
540.942
519.999
491.792
456.112
412.708
361.292
301.725
233.011
159.822
67.4924
0.826986
0.43121
0.464279
0.459911
0.456655
0.453471
0.442097
0.421223
0.390741
0.350946
0.302973
494.354
487.916
475.171
455.966
430.167
397.658
358.303
311.975
258.715
197.879
133.935
52.7317
0.424684
0.204725
0.247157
0.232765
0.230625
0.228361
0.218698
0.201238
0.176132
0.143868
0.105529
432.525
426.599
415.024
397.611
374.284
344.997
309.707
268.402
221.237
167.81
112.241
41.0167
0.0293077
-0.106329
0.00830434
0.00518376
0.00823863
0.00876471
0.00183632
-0.0120346
-0.0323211
-0.0583892
-0.0892923
375.827
370.44
360.05
344.446
323.6
297.516
266.217
229.772
188.4
141.853
93.8376
31.6369
-0.283877
-0.38431
-0.232612
-0.217523
-0.208137
-0.204644
-0.208897
-0.219565
-0.23578
-0.256786
-0.281722
323.818
318.982
309.772
295.96
277.554
254.598
227.156
195.347
159.417
119.221
78.0371
24.1035
-0.493276
-0.574626
-0.448121
-0.426888
-0.415453
-0.410984
-0.413687
-0.42201
-0.435004
-0.451922
-0.472026
276.035
271.75
263.695
251.628
235.59
215.647
191.888
164.457
133.611
99.268
64.2977
18.0203
-0.655921
-0.715824
-0.636505
-0.621595
-0.613388
-0.61052
-0.613163
-0.620139
-0.63073
-0.644372
-0.660519
232.004
228.258
221.316
210.93
197.163
180.097
159.83
136.519
110.418
81.4939
52.2266
13.0978
-0.817598
-0.855265
-0.812273
-0.806855
-0.804446
-0.804856
-0.808579
-0.815
-0.823804
-0.834754
-0.847559
191.18
187.955
182.077
173.298
161.691
147.35
130.38
110.939
89.2786
65.4032
41.445
9.11739
-0.980486
-1.00115
-0.983815
-0.987708
-0.991771
-0.996163
-1.00154
-1.00782
-1.01516
-1.02373
-1.03355
153.107
150.385
145.525
138.274
128.712
116.94
103.075
87.2774
69.7857
50.6234
31.6345
5.87284
-1.13633
-1.15174
-1.15456
-1.16745
-1.17816
-1.18665
-1.19372
-1.19985
-1.20572
-1.21195
-1.21887
118.012
115.769
111.887
106.086
98.4605
89.1226
78.2024
65.874
52.3628
37.6489
23.2654
3.41241
-1.26745
-1.30685
-1.32533
-1.34833
-1.36636
-1.37868
-1.38688
-1.39233
-1.39632
-1.39994
-1.40384
84.8287
82.9702
79.9827
75.5218
69.6721
62.5663
54.3445
45.2123
35.4262
24.9847
15.2307
1.2368
-1.4925
-1.46313
-1.49519
-1.53355
-1.55991
-1.57511
-1.58301
-1.58651
-1.58771
-1.58812
-1.58865
47.8296
46.2968
44.0671
40.764
36.4445
31.2468
25.3248
18.9251
12.3216
5.78189
1.11409
-3.75877
-1.84449
-1.58092
-1.66639
-1.73066
-1.76399
-1.77922
-1.78407
-1.78343
-1.78039
-1.77671
-1.77334
14.7021
13.6714
12.2768
10.177
7.48927
4.33314
0.883751
-2.60252
-5.88183
-8.53125
-8.64953
-7.26505
-1.91914
-1.62448
-1.84291
-1.95381
-1.9859
-1.99438
-1.99149
-1.98364
-1.97448
-1.96558
-1.9577
11.3056
10.8154
10.3781
9.71984
8.91763
8.06127
7.28635
6.73959
6.78735
7.3697
10.7384
17.4993
-1.72202
-1.82813
-2.10431
-2.22718
-2.23672
-2.22356
-2.20548
-2.1866
-2.16939
-2.15424
-2.14131
13.5208
13.4963
13.3147
13.0444
12.686
12.247
11.7251
11.1148
10.56
9.1276
7.53684
-0.866751
-0.868044
-3.84734
-2.9353
-2.63739
-2.52298
-2.46599
-2.4234
-2.3905
-2.36375
-2.34169
-2.32347
-4.12155
-4.11574
-4.10931
-4.0996
-4.08704
-4.07183
-4.05448
-4.03494
-4.0158
-4.01591
-4.05619
-4.01731
-4.67978
-5.2723
-3.62303
-3.05528
-2.824
-2.70928
-2.63988
-2.59181
-2.55536
-2.52652
-2.50322
-4.16684
-4.16313
-4.15627
-4.14609
-4.13272
-4.11609
-4.09588
-4.0721
-4.04823
-4.02248
-3.98684
-4.00296
-4.33265
-4.30011
-3.8261
-3.31845
-3.07166
-2.9317
-2.84554
-2.78593
-2.74162
-2.70714
-2.67953
-4.19669
-4.19305
-4.1856
-4.17459
-4.16
-4.14158
-4.11893
-4.09233
-4.06272
-4.02573
-3.98345
-3.97094
-3.99278
-3.86527
-3.62114
-3.39257
-3.233
-3.11525
-3.0308
-2.96809
-2.92
-2.88204
-2.85144
-4.23784
-4.23406
-4.22641
-4.21502
-4.19972
-4.18021
-4.15615
-4.12749
-4.09348
-4.05184
-4.00774
-3.97062
-3.91455
-3.78835
-3.61842
-3.47668
-3.36437
-3.27199
-3.19756
-3.1378
-3.08968
-3.05055
-3.01843
-4.2827
-4.2787
-4.27095
-4.25927
-4.24344
-4.22317
-4.1982
-4.16818
-4.13215
-4.0893
-4.04152
-3.9876
-3.91562
-3.81624
-3.70082
-3.59191
-3.49879
-3.41982
-3.35347
-3.29797
-3.25163
-3.21291
-3.18046
-4.33246
-4.32853
-4.32078
-4.30902
-4.29304
-4.2726
-4.24743
-4.21717
-4.18112
-4.13896
-4.09082
-4.03446
-3.96521
-3.88243
-3.79384
-3.70825
-3.6304
-3.56174
-3.5022
-3.45101
-3.40719
-3.36978
-3.33785
-4.38699
-4.38323
-4.37554
-4.36388
-4.34814
-4.32805
-4.30336
-4.27377
-4.23884
-4.1983
-4.15178
-4.09807
-4.03599
-3.96663
-3.89437
-3.82387
-3.75805
-3.69833
-3.64515
-3.59833
-3.55743
-3.52187
-3.49103
-4.44646
-4.44277
-4.43522
-4.42388
-4.40865
-4.3893
-4.36559
-4.33731
-4.3042
-4.26607
-4.22265
-4.17356
-4.11887
-4.0599
-3.99928
-3.93975
-3.88327
-3.83102
-3.78358
-3.74103
-3.70322
-3.66983
-3.64048
-4.51043
-4.5068
-4.49955
-4.48873
-4.47423
-4.45586
-4.43346
-4.40688
-4.376
-4.34075
-4.30106
-4.25701
-4.20907
-4.15837
-4.10663
-4.0556
-4.0067
-3.96081
-3.91851
-3.88
-3.8453
-3.81425
-3.78664
-4.57836
-4.57491
-4.56813
-4.55797
-4.54435
-4.52715
-4.50626
-4.48162
-4.4532
-4.42104
-4.38524
-4.34607
-4.30407
-4.26018
-4.21556
-4.17141
-4.12877
-4.08836
-4.05067
-4.01595
-3.9843
-3.95567
-3.92995
-4.65
-4.64685
-4.64061
-4.63122
-4.61858
-4.60265
-4.5834
-4.56081
-4.53494
-4.50591
-4.47389
-4.43923
-4.40244
-4.36425
-4.32552
-4.28711
-4.24979
-4.21416
-4.18062
-4.14944
-4.12073
-4.09454
-4.0708
-4.72524
-4.72242
-4.71674
-4.70812
-4.69651
-4.68191
-4.66434
-4.64384
-4.62051
-4.5945
-4.56605
-4.53548
-4.50325
-4.46994
-4.43621
-4.4027
-4.36999
-4.33859
-4.30881
-4.28091
-4.25504
-4.23125
-4.20953
-4.80385
-4.80134
-4.79618
-4.78831
-4.77773
-4.76447
-4.74858
-4.73013
-4.70926
-4.68613
-4.66097
-4.63409
-4.60589
-4.57683
-4.54743
-4.51817
-4.48954
-4.46192
-4.43558
-4.41076
-4.38759
-4.36615
-4.34646
-4.88542
-4.88317
-4.8785
-4.87136
-4.8618
-4.84986
-4.83561
-4.81916
-4.80062
-4.78019
-4.75806
-4.73452
-4.70992
-4.68462
-4.65904
-4.63356
-4.60855
-4.58433
-4.56119
-4.53927
-4.51869
-4.49955
-4.48187
-4.96945
-4.96743
-4.96321
-4.9568
-4.94824
-4.93761
-4.92497
-4.91043
-4.89411
-4.87619
-4.85687
-4.83638
-4.81503
-4.79311
-4.77096
-4.74888
-4.72718
-4.70611
-4.68591
-4.6667
-4.6486
-4.63168
-4.61599
-5.0555
-5.05367
-5.04991
-5.04423
-5.03667
-5.02732
-5.01624
-5.00353
-4.98932
-4.97377
-4.95705
-4.93938
-4.921
-4.90216
-4.88314
-4.86417
-4.84551
-4.82736
-4.8099
-4.79326
-4.77754
-4.76279
-4.74906
-5.1432
-5.14158
-5.13828
-5.13333
-5.12677
-5.11866
-5.10909
-5.09815
-5.08595
-5.07263
-5.05835
-5.0433
-5.02767
-5.01168
-4.99554
-4.97945
-4.96361
-4.94819
-4.93333
-4.91914
-4.90569
-4.89305
-4.88124
-5.23232
-5.23092
-5.22809
-5.22386
-5.21828
-5.2114
-5.20329
-5.19405
-5.18376
-5.17256
-5.16058
-5.14799
-5.13494
-5.1216
-5.10815
-5.09475
-5.08156
-5.06871
-5.05632
-5.04447
-5.03322
-5.02263
-5.01271
-5.32268
-5.3215
-5.31915
-5.31564
-5.31102
-5.30533
-5.29864
-5.29102
-5.28257
-5.27339
-5.2636
-5.25332
-5.2427
-5.23186
-5.22095
-5.21009
-5.19941
-5.18901
-5.17897
-5.16938
-5.16027
-5.15167
-5.14362
-5.41412
-5.41317
-5.41128
-5.40848
-5.40479
-5.40026
-5.39494
-5.3889
-5.38221
-5.37497
-5.36726
-5.3592
-5.35088
-5.34242
-5.33392
-5.32549
-5.3172
-5.30915
-5.3014
-5.29399
-5.28695
-5.28031
-5.27409
-5.50656
-5.50584
-5.50442
-5.5023
-5.49951
-5.4961
-5.4921
-5.48757
-5.48258
-5.47719
-5.47148
-5.46554
-5.45943
-5.45325
-5.44707
-5.44096
-5.43499
-5.42921
-5.42366
-5.41838
-5.41338
-5.40867
-5.40425
-5.59972
-5.59925
-5.59827
-5.59683
-5.59492
-5.5926
-5.58989
-5.58683
-5.58349
-5.5799
-5.57613
-5.57223
-5.56826
-5.56429
-5.56035
-5.55651
-5.55279
-5.54923
-5.54585
-5.54267
-5.53967
-5.53685
-5.53421
-5.69207
-5.69185
-5.69137
-5.69063
-5.68967
-5.6885
-5.68715
-5.68564
-5.68401
-5.6823
-5.68053
-5.67874
-5.67697
-5.67524
-5.67358
-5.67202
-5.67056
-5.66922
-5.66801
-5.66692
-5.66592
-5.66498
-5.66411
0.81644
0.776382
0.767109
0.736161
0.807152
0.752423
0.704286
0.658955
0.644655
0.597722
0.55467
0.515804
0.453045
0.419318
0.386769
0.35556
0.263518
0.237639
0.211688
0.186136
0.0742206
0.0535392
0.0325515
0.0116106
-0.11449
-0.131168
-0.148225
-0.165422
-0.302075
-0.315589
-0.329499
-0.343634
-0.488481
-0.499436
-0.510755
-0.522327
-0.673757
-0.68259
-0.691738
-0.701125
-0.858049
-0.865059
-0.872332
-0.879818
-1.04157
-1.04695
-1.05253
-1.05831
-1.22455
-1.22838
-1.23238
-1.23655
-1.40716
-1.40945
-1.4119
-1.4145
-1.58949
-1.59018
-1.59106
-1.59211
-1.77147
-1.77049
-1.76974
-1.7692
-1.95291
-1.95016
-1.94771
-1.94557
-2.13341
-2.1288
-2.12463
-2.12087
-2.3124
-2.30594
-2.30006
-2.29472
-2.48917
-2.48096
-2.47348
-2.46667
-2.66291
-2.65319
-2.64432
-2.63622
-2.8329
-2.82202
-2.81206
-2.80292
-2.9987
-2.98706
-2.97636
-2.96649
-3.16023
-3.14821
-3.13709
-3.1268
-3.31764
-3.30557
-3.29433
-3.28388
-3.47126
-3.45937
-3.44826
-3.43786
-3.62143
-3.60993
-3.59912
-3.58896
-3.76854
-3.75755
-3.74719
-3.7374
-3.91294
-3.90257
-3.89275
-3.88345
-4.05497
-4.04529
-4.03609
-4.02736
-4.19495
-4.18601
-4.17749
-4.16937
-4.33316
-4.32499
-4.31718
-4.30973
-4.46987
-4.46248
-4.45541
-4.44865
-4.6053
-4.59871
-4.59239
-4.58633
-4.73967
-4.73387
-4.72831
-4.72297
-4.87315
-4.86815
-4.86334
-4.85872
-5.00591
-5.00169
-4.99764
-4.99374
-5.13808
-5.13465
-5.13134
-5.12816
-5.2698
-5.26715
-5.26458
-5.26212
-5.4012
-5.39931
-5.39749
-5.39573
-5.53239
-5.53126
-5.53017
-5.52912
-5.6635
-5.66313
-5.66277
-5.66242
0.66785
0.635414
0.595363
0.554515
0.519123
0.487744
0.459568
0.434287
0.41166
0.391524
0.373734
0.358186
0.344776
0.333435
0.324086
0.316682
0.311167
0.30752
0.305703
0.587146
0.520679
0.470585
0.42658
0.388633
0.355661
0.326595
0.30085
0.278032
0.257869
0.24015
0.224724
0.211461
0.200266
0.191054
0.183765
0.178343
0.174756
0.172971
0.455661
0.389426
0.33691
0.292062
0.253427
0.219955
0.190647
0.164852
0.142119
0.122123
0.10462
0.0894262
0.076395
0.065414
0.0563908
0.0492569
0.0439552
0.0404486
0.0387057
0.305547
0.245199
0.19461
0.151111
0.113334
0.0804055
0.0515425
0.026163
0.0038373
-0.0157583
-0.0328749
-0.0477063
-0.0604071
-0.0710974
-0.0798735
-0.086808
-0.0919582
-0.095364
-0.0970558
0.144427
0.0914979
0.0451448
0.00445835
-0.0313586
-0.0628961
-0.0906985
-0.115216
-0.136808
-0.155763
-0.172313
-0.186645
-0.198911
-0.20923
-0.217698
-0.224387
-0.229353
-0.232637
-0.234267
-0.0230416
-0.0686051
-0.109902
-0.146975
-0.180122
-0.209656
-0.235906
-0.259178
-0.279741
-0.297827
-0.313636
-0.327334
-0.339061
-0.348929
-0.357027
-0.363425
-0.368175
-0.371315
-0.372873
-0.194181
-0.233006
-0.269146
-0.302265
-0.332343
-0.359474
-0.383813
-0.405536
-0.424822
-0.441841
-0.456751
-0.469692
-0.480782
-0.490123
-0.497793
-0.503856
-0.508358
-0.511334
-0.512811
-0.36746
-0.400278
-0.431472
-0.46058
-0.487411
-0.511909
-0.534099
-0.554053
-0.571869
-0.58766
-0.601538
-0.613613
-0.623982
-0.632727
-0.639916
-0.645603
-0.649827
-0.652621
-0.654008
-0.541963
-0.569452
-0.596031
-0.621226
-0.644773
-0.666528
-0.686427
-0.704465
-0.720673
-0.735112
-0.747855
-0.758977
-0.768551
-0.776643
-0.783304
-0.788579
-0.792502
-0.795097
-0.796386
-0.717138
-0.739868
-0.762177
-0.78363
-0.803943
-0.822929
-0.840469
-0.856503
-0.871013
-0.884015
-0.895544
-0.905647
-0.914371
-0.921761
-0.927858
-0.932693
-0.936292
-0.938676
-0.93986
-0.892636
-0.911068
-0.92942
-0.947321
-0.964497
-0.980743
-0.99591
-1.0099
-1.02267
-1.03418
-1.04444
-1.05348
-1.06131
-1.06797
-1.07347
-1.07784
-1.0811
-1.08327
-1.08434
-1.06823
-1.08272
-1.09738
-1.11192
-1.12607
-1.13964
-1.15246
-1.16441
-1.17541
-1.18541
-1.19438
-1.20233
-1.20924
-1.21514
-1.22003
-1.22393
-1.22684
-1.22877
-1.22974
-1.24377
-1.25457
-1.26576
-1.2771
-1.28835
-1.29933
-1.30985
-1.31979
-1.32904
-1.33752
-1.3452
-1.35204
-1.35803
-1.36316
-1.36743
-1.37084
-1.3734
-1.3751
-1.37595
-1.41913
-1.42641
-1.4343
-1.44259
-1.45106
-1.45954
-1.46784
-1.47581
-1.48334
-1.49034
-1.49673
-1.50247
-1.50753
-1.51189
-1.51555
-1.51848
-1.52068
-1.52215
-1.52288
-1.59416
-1.59804
-1.60276
-1.60813
-1.61395
-1.62003
-1.62619
-1.63227
-1.63813
-1.64367
-1.64881
-1.65347
-1.65763
-1.66123
-1.66427
-1.66672
-1.66857
-1.66981
-1.67043
-1.76869
-1.76925
-1.77091
-1.7735
-1.77679
-1.78059
-1.7847
-1.78897
-1.79323
-1.79737
-1.80129
-1.80491
-1.80818
-1.81106
-1.8135
-1.81548
-1.81699
-1.818
-1.8185
-1.94249
-1.9398
-1.93853
-1.93845
-1.93935
-1.94099
-1.94318
-1.94572
-1.94846
-1.95127
-1.95403
-1.95665
-1.95908
-1.96125
-1.96311
-1.96465
-1.96582
-1.96661
-1.967
-2.11525
-2.10942
-2.10536
-2.10278
-2.10142
-2.10105
-2.10143
-2.10236
-2.10367
-2.10523
-2.10689
-2.10857
-2.1102
-2.1117
-2.11302
-2.11412
-2.11497
-2.11555
-2.11584
-2.28665
-2.27785
-2.27116
-2.26626
-2.26282
-2.26057
-2.25929
-2.25873
-2.25872
-2.25911
-2.25975
-2.26056
-2.26143
-2.2623
-2.26311
-2.2638
-2.26435
-2.26473
-2.26493
-2.45631
-2.44478
-2.4357
-2.42867
-2.42334
-2.41938
-2.41661
-2.41468
-2.41346
-2.41279
-2.4125
-2.4125
-2.41268
-2.41296
-2.41329
-2.41361
-2.41388
-2.41407
-2.41418
-2.62385
-2.60993
-2.59875
-2.58984
-2.58283
-2.57738
-2.57322
-2.57008
-2.56777
-2.56616
-2.56503
-2.56429
-2.56384
-2.5636
-2.56349
-2.56346
-2.56347
-2.5635
-2.56352
-2.78894
-2.77304
-2.76009
-2.7496
-2.74115
-2.73439
-2.72904
-2.72485
-2.72159
-2.71911
-2.71723
-2.71584
-2.71484
-2.71412
-2.71362
-2.71328
-2.71306
-2.71293
-2.71287
-2.95133
-2.93392
-2.91957
-2.9078
-2.89816
-2.89031
-2.88397
-2.87886
-2.87479
-2.87158
-2.86905
-2.86709
-2.86559
-2.86445
-2.86361
-2.863
-2.86257
-2.86231
-2.86218
-3.1109
-3.09245
-3.0771
-3.06434
-3.05378
-3.04507
-3.03792
-3.03207
-3.02732
-3.02348
-3.02041
-3.01796
-3.01604
-3.01454
-3.0134
-3.01255
-3.01196
-3.01158
-3.01139
-3.26765
-3.24861
-3.23262
-3.2192
-3.20797
-3.19861
-3.19083
-3.1844
-3.17911
-3.17477
-3.17125
-3.1684
-3.16613
-3.16433
-3.16294
-3.1619
-3.16116
-3.16068
-3.16044
-3.42164
-3.40243
-3.38614
-3.37234
-3.3607
-3.3509
-3.34269
-3.33583
-3.33013
-3.32542
-3.32154
-3.31838
-3.31582
-3.31379
-3.3122
-3.311
-3.31013
-3.30958
-3.30929
-3.57304
-3.554
-3.53771
-3.52381
-3.51198
-3.50195
-3.49348
-3.48634
-3.48037
-3.47538
-3.47125
-3.46786
-3.46509
-3.46288
-3.46113
-3.4598
-3.45885
-3.45823
-3.45791
-3.72201
-3.70344
-3.68743
-3.67366
-3.66185
-3.65178
-3.6432
-3.63594
-3.62981
-3.62466
-3.62037
-3.61682
-3.61392
-3.61157
-3.60972
-3.6083
-3.60727
-3.60661
-3.60627
-3.86877
-3.85091
-3.83539
-3.82196
-3.81037
-3.80041
-3.79189
-3.78462
-3.77846
-3.77326
-3.7689
-3.76527
-3.76228
-3.75986
-3.75794
-3.75647
-3.75539
-3.75469
-3.75434
-4.01352
-3.99657
-3.98173
-3.96882
-3.95761
-3.94792
-3.93958
-3.93244
-3.92635
-3.92118
-3.91683
-3.91319
-3.91019
-3.90774
-3.90579
-3.90429
-3.9032
-3.90248
-3.90212
-4.15649
-4.14058
-4.12659
-4.11434
-4.10365
-4.09436
-4.08634
-4.07942
-4.0735
-4.06846
-4.06419
-4.06061
-4.05764
-4.05522
-4.05328
-4.05178
-4.05068
-4.04997
-4.04961
-4.29787
-4.28314
-4.27011
-4.25864
-4.24859
-4.23982
-4.2322
-4.22562
-4.21995
-4.21511
-4.211
-4.20754
-4.20465
-4.20229
-4.20039
-4.19893
-4.19785
-4.19715
-4.1968
-4.43786
-4.42439
-4.41242
-4.40184
-4.39253
-4.38437
-4.37725
-4.37108
-4.36575
-4.36118
-4.35728
-4.35399
-4.35124
-4.34898
-4.34716
-4.34575
-4.34471
-4.34404
-4.3437
-4.57666
-4.56451
-4.55368
-4.54406
-4.53556
-4.52809
-4.52156
-4.51587
-4.51094
-4.5067
-4.50307
-4.5
-4.49742
-4.4953
-4.49359
-4.49226
-4.49129
-4.49065
-4.49034
-4.71442
-4.70365
-4.694
-4.68541
-4.6778
-4.67109
-4.66519
-4.66005
-4.65558
-4.65172
-4.64841
-4.6456
-4.64324
-4.64129
-4.63972
-4.63849
-4.63759
-4.637
-4.63672
-4.85131
-4.84194
-4.83353
-4.82602
-4.81934
-4.81343
-4.80823
-4.80368
-4.79972
-4.79629
-4.79334
-4.79083
-4.78872
-4.78697
-4.78556
-4.78445
-4.78365
-4.78312
-4.78286
-4.98747
-4.97953
-4.97238
-4.96598
-4.96027
-4.95522
-4.95075
-4.94684
-4.94343
-4.94046
-4.93791
-4.93574
-4.9339
-4.93238
-4.93115
-4.93019
-4.92948
-4.92902
-4.9288
-5.12304
-5.11654
-5.11067
-5.10541
-5.10071
-5.09653
-5.09284
-5.0896
-5.08677
-5.0843
-5.08218
-5.08036
-5.07883
-5.07755
-5.07652
-5.07572
-5.07513
-5.07474
-5.07456
-5.25815
-5.25309
-5.24852
-5.24441
-5.24074
-5.23747
-5.23458
-5.23203
-5.2298
-5.22786
-5.22619
-5.22475
-5.22354
-5.22253
-5.22172
-5.22108
-5.22061
-5.22031
-5.22016
-5.3929
-5.3893
-5.38603
-5.38309
-5.38046
-5.37812
-5.37604
-5.37421
-5.37261
-5.37121
-5.37
-5.36897
-5.36809
-5.36736
-5.36677
-5.36631
-5.36597
-5.36575
-5.36565
-5.52743
-5.52527
-5.52332
-5.52155
-5.51997
-5.51856
-5.51732
-5.51621
-5.51525
-5.5144
-5.51368
-5.51305
-5.51252
-5.51208
-5.51172
-5.51144
-5.51124
-5.5111
-5.51104
-5.66186
-5.66114
-5.66049
-5.6599
-5.65937
-5.6589
-5.65849
-5.65812
-5.6578
-5.65751
-5.65727
-5.65706
-5.65688
-5.65673
-5.65661
-5.65652
-5.65645
-5.65641
-5.65639
)
;

boundaryField
{
    leftWall
    {
        type            calculated;
        value           nonuniform List<scalar> 
50
(
1336.32
1278.95
1223.08
1168.73
1115.89
1064.58
1014.78
966.439
893.264
800.564
714.54
635.014
561.725
494.354
432.525
375.827
323.818
276.035
232.004
191.18
153.107
118.012
84.8287
47.8296
14.7021
11.3056
13.5208
-4.12155
-4.16684
-4.19669
-4.23784
-4.2827
-4.33246
-4.38699
-4.44646
-4.51043
-4.57836
-4.65
-4.72524
-4.80385
-4.88542
-4.96945
-5.0555
-5.1432
-5.23232
-5.32268
-5.41412
-5.50656
-5.59972
-5.69207
)
;
    }
    rightWall
    {
        type            calculated;
        value           nonuniform List<scalar> 
50
(
0.823952
0.764756
0.705203
0.645294
0.585031
0.524414
0.463445
0.402124
0.305703
0.172971
0.0387057
-0.0970558
-0.234267
-0.372873
-0.512811
-0.654008
-0.796386
-0.93986
-1.08434
-1.22974
-1.37595
-1.52288
-1.67043
-1.8185
-1.967
-2.11584
-2.26493
-2.41418
-2.56352
-2.71287
-2.86218
-3.01139
-3.16044
-3.30929
-3.45791
-3.60627
-3.75434
-3.90212
-4.04961
-4.1968
-4.3437
-4.49034
-4.63672
-4.78286
-4.9288
-5.07456
-5.22016
-5.36565
-5.51104
-5.65639
)
;
    }
    lowerWall
    {
        type            calculated;
        value           nonuniform List<scalar> 
62
(
1365.75
1357.22
1338.63
1310.32
1271.93
1222.81
1162.09
1088.52
1000.93
895.904
772.415
634.285
448.404
214.49
59.6718
8.43424
3.85263
3.24855
2.98567
2.73139
2.55298
2.44446
2.39354
2.36411
2.28902
2.19305
2.07807
1.9456
1.79569
1.62579
1.43489
0.879038
0.838979
0.829707
0.798758
1.09325
1.0355
0.978895
0.923375
0.869038
0.815389
0.75918
0.703649
1.12268
1.1148
1.09842
1.07685
1.05282
1.02815
1.00393
0.980922
0.959505
0.939974
0.922388
0.906849
0.893309
0.881803
0.872252
0.864684
0.859013
0.855276
0.853382
)
;
    }
    atmosphere
    {
        type            calculated;
        value           nonuniform List<scalar> 
46
(
-5.73716
-5.73712
-5.7369
-5.73657
-5.73613
-5.73562
-5.73503
-5.73438
-5.73371
-5.73302
-5.73234
-5.73169
-5.73108
-5.73054
-5.73008
-5.72969
-5.7294
-5.7292
-5.72908
-5.72904
-5.72904
-5.72904
-5.72904
-5.72904
-5.72904
-5.72904
-5.72904
-5.72904
-5.72904
-5.72904
-5.72904
-5.72904
-5.72904
-5.72904
-5.72904
-5.72904
-5.72904
-5.72904
-5.72904
-5.72904
-5.72904
-5.72904
-5.72904
-5.72904
-5.72904
-5.72904
)
;
    }
    defaultFaces
    {
        type            empty;
    }
}


// ************************************************************************* //
