/*--------------------------------*- C++ -*----------------------------------*\
| =========                 |                                                 |
| \\      /  F ield         | OpenFOAM: The Open Source CFD Toolbox           |
|  \\    /   O peration     | Version:  5.x                                   |
|   \\  /    A nd           | Web:      www.OpenFOAM.org                      |
|    \\/     M anipulation  |                                                 |
\*---------------------------------------------------------------------------*/
FoamFile
{
    version     2.0;
    format      ascii;
    class       volScalarField;
    location    "0.05";
    object      p_rgh;
}
// * * * * * * * * * * * * * * * * * * * * * * * * * * * * * * * * * * * * * //

dimensions      [1 -1 -2 0 0 0 0];

internalField   nonuniform List<scalar> 
2268
(
1365.75
1357.22
1338.63
1310.32
1271.93
1222.81
1162.09
1088.52
1000.93
895.904
772.415
634.285
448.404
214.49
59.6718
8.43424
3.85263
3.24855
2.98567
2.73139
2.55298
2.44446
2.39354
1367.24
1358.71
1340.15
1311.88
1273.55
1224.49
1163.83
1090.31
1002.75
897.468
773.706
634.619
439.563
183.678
35.6166
5.50203
3.75406
3.28674
2.98002
2.71842
2.53474
2.42707
2.37731
1370.23
1361.72
1343.21
1315.03
1276.81
1227.88
1167.37
1093.97
1006.5
900.846
776.733
635.114
424.201
132.011
13.2513
4.09871
3.39136
3.08404
2.84247
2.63768
2.4829
2.38676
2.34019
1374.73
1366.25
1347.82
1319.77
1281.72
1233
1172.71
1099.55
1012.26
906.33
782.109
637.465
407.242
93.8646
7.44276
3.08236
2.59945
2.66626
2.64069
2.52495
2.40941
2.32769
2.28408
1380.76
1372.31
1353.98
1326.11
1288.3
1239.86
1179.91
1107.12
1020.18
914.277
790.533
643.241
391.486
72.8086
5.20021
2.49639
2.27186
2.4177
2.47242
2.41024
2.32434
2.25403
2.21047
1388.3
1379.9
1361.71
1334.07
1296.56
1248.5
1189.01
1116.76
1030.41
925.01
802.55
653.672
380.25
56.0864
3.97568
2.20463
2.16207
2.29167
2.33901
2.3008
2.23323
2.16918
2.11942
1397.36
1389
1370.99
1343.63
1306.48
1258.9
1200
1128.47
1042.97
938.581
818.316
669.446
375.539
43.3919
3.25062
2.06934
2.101
2.18851
2.22483
2.19759
2.13975
2.07596
2.00838
1407.88
1399.57
1381.77
1354.72
1318.01
1271
1212.81
1142.17
1057.75
954.846
837.321
690.166
378.5
35.1224
2.70776
2.00392
2.04003
2.09804
2.12441
2.1011
2.04698
1.9787
1.87633
1.12268
1.1148
1.09842
1.07685
1.05282
1.02815
1.00393
0.980922
0.959505
0.939974
0.922388
0.906849
0.893309
0.881803
0.872252
0.864684
0.859013
0.855276
0.853382
1.12379
1.11594
1.09921
1.07727
1.05293
1.02806
1.00372
0.980638
0.959177
0.939628
0.92203
0.90649
0.89295
0.88145
0.8719
0.864338
0.858666
0.854937
0.853044
1.12604
1.1183
1.10084
1.07809
1.05316
1.02789
1.0033
0.980066
0.958518
0.938922
0.921304
0.905758
0.892219
0.880724
0.871181
0.863626
0.857962
0.854238
0.85235
1.12938
1.12194
1.1033
1.0793
1.05346
1.02761
1.00264
0.979189
0.957516
0.937851
0.920206
0.904649
0.891113
0.879626
0.870097
0.862552
0.856899
0.853181
0.8513
1.1339
1.12702
1.1066
1.08082
1.05377
1.02716
1.00172
0.977985
0.956157
0.936409
0.918729
0.903162
0.889632
0.878157
0.868646
0.861116
0.855478
0.851768
0.849895
1.13911
1.13375
1.1107
1.08256
1.054
1.02648
1.00049
0.976429
0.954426
0.934585
0.91687
0.901293
0.887775
0.876317
0.86683
0.859319
0.853701
0.85
0.848137
1.14176
1.14213
1.11555
1.08436
1.05415
1.02551
0.998899
0.974492
0.952304
0.932369
0.91462
0.89904
0.885541
0.874105
0.864648
0.857162
0.851567
0.847878
0.846026
1.14509
1.15178
1.12102
1.08601
1.05384
1.02413
0.996897
0.972139
0.94977
0.929747
0.911975
0.896399
0.882928
0.871523
0.862103
0.854645
0.849079
0.845403
0.843565
1426.73
1418.51
1401.09
1374.64
1338.74
1292.8
1235.98
1167.13
1084.9
985.486
872.168
729.842
392.059
26.3226
2.17394
1.93035
1.94417
1.97397
1.98533
1.96154
1.90659
1.81976
1.62978
1459.23
1451.23
1434.51
1409.13
1374.73
1330.79
1276.61
1211.23
1133.61
1040.8
936.689
805.933
400.582
14.18
1.86958
1.81755
1.82226
1.83276
1.83038
1.80321
1.75042
1.6716
1.56683
1498.4
1490.69
1474.81
1450.73
1418.15
1376.65
1325.68
1264.52
1192.46
1107.36
1013.62
895.99
405.673
7.33267
1.75143
1.70863
1.70559
1.70762
1.69871
1.67242
1.6289
1.56923
1.49784
1544.06
1536.73
1521.8
1499.22
1468.73
1430.02
1382.69
1326.27
1260.35
1183.44
1100.23
995.709
404.219
3.9689
1.64439
1.60148
1.59581
1.59372
1.58234
1.55855
1.5223
1.47383
1.41414
1595.97
1589.06
1575.19
1554.24
1526.04
1490.36
1446.95
1395.54
1335.97
1267.26
1194.07
1101.74
396.481
2.21015
1.53683
1.49648
1.49106
1.48773
1.47634
1.45547
1.42499
1.38519
1.33722
1653.79
1647.36
1634.61
1615.41
1589.61
1557.1
1517.74
1471.41
1418.15
1357.32
1293.37
1212.17
383.298
1.85833
1.42845
1.39342
1.39014
1.38781
1.37814
1.36068
1.33557
1.30331
1.26497
1717.16
1711.23
1699.66
1682.25
1658.92
1629.63
1594.34
1553.04
1505.87
1452.44
1396.87
1325.65
366.607
1.52003
1.30541
1.29049
1.29291
1.2934
1.28647
1.2726
1.25231
1.22625
1.19534
1785.66
1780.27
1769.88
1754.28
1733.43
1707.34
1676.05
1639.6
1598.23
1551.68
1503.67
1441.47
347.308
1.29254
1.18609
1.19273
1.20171
1.20519
1.20093
1.19026
1.17405
1.15304
1.12811
1858.84
1854
1844.8
1830.98
1812.58
1789.62
1762.18
1730.37
1694.44
1654.24
1613.06
1559.13
326.053
1.18086
1.09378
1.10842
1.11958
1.12404
1.12134
1.11301
1.10002
1.0831
1.063
1936.25
1931.97
1923.91
1911.85
1895.81
1875.86
1852.11
1824.67
1793.83
1759.49
1724.52
1678.24
303.416
1.11918
1.02932
1.03882
1.04684
1.0497
1.04705
1.04008
1.02949
1.01585
0.999699
2017.42
2013.67
2006.73
1996.34
1982.58
1965.51
1945.24
1921.93
1895.83
1866.91
1837.64
1798.51
279.867
1.06175
0.976755
0.978692
0.980971
0.980556
0.976833
0.970413
0.961609
0.950659
0.937853
2101.79
2098.56
2092.68
2083.9
2072.3
2057.96
2040.99
2021.55
1999.89
1976.01
1952.05
1919.72
255.866
1.00446
0.929467
0.922981
0.918838
0.914444
0.909065
0.902783
0.895443
0.886873
0.877059
2188.91
2186.19
2181.33
2174.08
2164.51
2152.74
2138.88
2123.08
2105.59
2086.42
2067.43
2041.67
232.251
0.952703
0.883202
0.868414
0.85764
0.84915
0.84208
0.835947
0.830081
0.823855
0.816929
2279.01
2276.76
2272.88
2267.08
2259.45
2250.11
2239.19
2226.86
2213.35
2198.64
2184.25
2164.39
210.098
0.910313
0.836984
0.812703
0.794642
0.782319
0.774112
0.768662
0.764673
0.761058
0.757152
2371.02
2369.13
2366.14
2361.68
2355.82
2348.71
2340.49
2331.35
2321.56
2311.11
2301.34
2287.27
183.726
0.875688
0.792602
0.752677
0.726276
0.711084
0.703176
0.699681
0.698478
0.698066
0.697536
2459.21
2457.43
2455.16
2451.85
2447.51
2442.29
2436.33
2429.9
2423.25
2416.64
2411.89
2406.46
162.132
0.906335
0.746114
0.680743
0.647398
0.632168
0.627316
0.627956
0.630992
0.634679
0.63805
2551.28
2548.15
2546.42
2544.23
2541.42
2538.11
2534.46
2530.74
2527.19
2524.07
2523.4
2520.79
351.988
0.921424
0.694113
0.582785
0.550683
0.542204
0.545094
0.552943
0.5621
0.570996
0.578878
2518.11
2513.91
2509.92
2503.42
2494.67
2483.69
2470.43
2454.47
2438.64
2401.71
2362.62
1981.2
602.366
1.04499
0.567257
0.435079
0.425076
0.438218
0.456297
0.475173
0.492386
0.507536
0.520462
804.513
802.98
794.543
781.897
765.104
744.491
720.064
691.209
664.039
596.072
532.329
135.49
162.202
54.5436
0.342417
0.172656
0.264194
0.320981
0.363564
0.396473
0.423223
0.44528
0.463503
-1.20938
-1.20358
-1.19715
-1.18743
-1.17487
-1.15967
-1.14232
-1.12277
-1.10364
-1.10374
-1.144
-1.1048
-1.76382
12.8346
3.82061
-0.02936
0.0893696
0.202887
0.272288
0.320358
0.356808
0.385641
0.408942
-1.12948
-1.12578
-1.11891
-1.10874
-1.09536
-1.07873
-1.05853
-1.03474
-1.01088
-0.985113
-0.949411
-0.964957
-1.14234
-0.739393
0.416916
-0.245036
-0.0340023
0.105661
0.191814
0.251431
0.295735
0.330222
0.357831
-1.03413
-1.03049
-1.02305
-1.01204
-0.997452
-0.979032
-0.956374
-0.929774
-0.90017
-0.863177
-0.820896
-0.808367
-0.827415
-0.688643
-0.455311
-0.229929
-0.0704473
0.0473037
0.13175
0.194463
0.242551
0.280509
0.311112
-0.950091
-0.946309
-0.938663
-0.927271
-0.911972
-0.892467
-0.868407
-0.839743
-0.805734
-0.764089
-0.719994
-0.682877
-0.626691
-0.500125
-0.330599
-0.188925
-0.0766193
0.015756
0.0901894
0.149942
0.19807
0.237194
0.269321
-0.869761
-0.865761
-0.858005
-0.846333
-0.830494
-0.810231
-0.78526
-0.755244
-0.719213
-0.676356
-0.628576
-0.574655
-0.502677
-0.403292
-0.287879
-0.17897
-0.0858532
-0.00687381
0.0594709
0.114976
0.161315
0.200035
0.232484
-0.79432
-0.790399
-0.782641
-0.77088
-0.754906
-0.734465
-0.709297
-0.679037
-0.642988
-0.600822
-0.552689
-0.49632
-0.427078
-0.344291
-0.255709
-0.170112
-0.0922662
-0.0236009
0.0359355
0.0871274
0.130945
0.168359
0.200289
-0.723657
-0.719901
-0.712207
-0.700551
-0.684809
-0.664721
-0.640028
-0.610436
-0.575513
-0.534972
-0.48845
-0.434743
-0.372658
-0.303304
-0.231045
-0.160542
-0.0947239
-0.0350015
0.0181847
0.0649971
0.1059
0.141465
0.172299
-0.657931
-0.654243
-0.646698
-0.635354
-0.620128
-0.600779
-0.577069
-0.548783
-0.515678
-0.477548
-0.434129
-0.385038
-0.330343
-0.271376
-0.210752
-0.15123
-0.0947423
-0.0424998
0.00494627
0.0474919
0.0853074
0.118699
0.148047
-0.596706
-0.593078
-0.585834
-0.575007
-0.560506
-0.542146
-0.519744
-0.49316
-0.462281
-0.427026
-0.38734
-0.343292
-0.295348
-0.244654
-0.192915
-0.141881
-0.0929767
-0.0470926
-0.00478724
0.0337159
0.0684216
0.099467
0.127076
-0.539449
-0.535999
-0.529212
-0.519061
-0.505441
-0.48824
-0.46735
-0.442704
-0.414285
-0.382123
-0.346325
-0.307153
-0.265159
-0.221261
-0.176642
-0.132496
-0.0898565
-0.0494482
-0.0117536
0.0229634
0.0546183
0.0832442
0.10896
-0.485891
-0.482738
-0.476503
-0.467111
-0.454475
-0.438545
-0.419287
-0.3967
-0.370833
-0.341797
-0.309783
-0.27512
-0.23833
-0.200139
-0.161407
-0.122997
-0.0856801
-0.0500554
-0.0165142
0.0146723
0.043377
0.0695723
0.0933087
-0.435934
-0.433117
-0.42744
-0.418818
-0.407209
-0.392607
-0.375033
-0.354534
-0.331205
-0.305201
-0.276747
-0.246176
-0.213946
-0.180638
-0.146904
-0.113393
-0.0806906
-0.0492822
-0.0195067
0.00838804
0.0342614
0.0580538
0.0797725
-0.389348
-0.386841
-0.381685
-0.373816
-0.363235
-0.349972
-0.33408
-0.315636
-0.294762
-0.271631
-0.246471
-0.219592
-0.191392
-0.162335
-0.132928
-0.103675
-0.0750383
-0.0474238
-0.0210794
0.00374038
0.0269058
0.0483443
0.0680377
-0.345727
-0.343478
-0.338804
-0.331667
-0.322104
-0.310165
-0.295921
-0.279466
-0.260933
-0.240493
-0.218367
-0.194833
-0.170228
-0.144931
-0.119344
-0.0938643
-0.0688579
-0.0446353
-0.0214983
0.000426785
0.0210022
0.0401466
0.0578263
-0.304568
-0.302539
-0.298325
-0.291912
-0.283358
-0.272721
-0.260081
-0.245539
-0.229225
-0.211304
-0.191979
-0.171498
-0.150144
-0.128227
-0.106071
-0.0839939
-0.062293
-0.0412271
-0.0210202
-0.00181165
0.0162888
0.0332037
0.0488935
-0.265414
-0.263591
-0.259833
-0.254147
-0.246593
-0.237235
-0.226154
-0.213448
-0.19924
-0.183685
-0.166967
-0.149299
-0.13092
-0.112084
-0.0930545
-0.0740889
-0.0554258
-0.0372765
-0.0198212
-0.00318305
0.0125456
0.0272949
0.0410254
-0.227922
-0.226304
-0.223009
-0.218053
-0.211492
-0.203388
-0.193818
-0.182874
-0.170672
-0.157351
-0.143074
-0.128024
-0.112398
-0.096407
-0.0802636
-0.0641757
-0.0483354
-0.0329127
-0.0180503
-0.00385986
0.00958637
0.0222301
0.034035
-0.191851
-0.190448
-0.187621
-0.183393
-0.177812
-0.170932
-0.162825
-0.153575
-0.143288
-0.132088
-0.120114
-0.107519
-0.0944662
-0.0811286
-0.0676782
-0.0542808
-0.0410892
-0.0282392
-0.0158454
-0.00399536
0.00724974
0.0178443
0.0277578
-0.157017
-0.155838
-0.153484
-0.149975
-0.145352
-0.139663
-0.132972
-0.125354
-0.116903
-0.107724
-0.0979341
-0.087659
-0.0770334
-0.0661959
-0.0552835
-0.0444262
-0.0337435
-0.0233411
-0.0133085
-0.00371448
0.00539748
0.0139925
0.0220476
-0.123258
-0.122309
-0.120424
-0.117621
-0.113933
-0.109401
-0.10408
-0.0980371
-0.091351
-0.0841081
-0.0764032
-0.0683387
-0.0600223
-0.0515627
-0.0430654
-0.0346296
-0.0263455
-0.0182925
-0.0105363
-0.00312793
0.00390748
0.0105453
0.0167718
-0.0905059
-0.0897903
-0.0883644
-0.086246
-0.0834611
-0.0800453
-0.0760457
-0.0715186
-0.0665266
-0.0611387
-0.0554304
-0.049482
-0.0433762
-0.0371942
-0.0310134
-0.0249054
-0.0189343
-0.0131547
-0.00760924
-0.0023263
0.00266994
0.00738361
0.0118071
-0.0584742
-0.0579968
-0.0570251
-0.0555772
-0.0536758
-0.0513508
-0.0486398
-0.0455866
-0.0422393
-0.0386506
-0.0348773
-0.0309786
-0.0270133
-0.0230376
-0.0191034
-0.015257
-0.0115385
-0.0079795
-0.0046021
-0.00141691
0.00157787
0.00439376
0.00703555
-0.0256267
-0.0254106
-0.0249225
-0.0241876
-0.0232249
-0.0220554
-0.020704
-0.019199
-0.0175715
-0.0158551
-0.0140851
-0.0122965
-0.0105228
-0.00879417
-0.00713687
-0.00557234
-0.00411679
-0.00278053
-0.0015674
-0.00047324
0.000526416
0.00145986
0.00233615
1.34991
1.30985
1.30058
1.26963
1.46581
1.41108
1.36295
1.31762
1.42851
1.38158
1.33853
1.29966
1.3621
1.32837
1.29582
1.26461
1.29776
1.27188
1.24593
1.22038
1.23366
1.21298
1.19199
1.17105
1.17014
1.15347
1.13641
1.11921
1.10775
1.09424
1.08033
1.0662
1.04654
1.03559
1.02427
1.0127
0.986461
0.977628
0.96848
0.959092
0.927364
0.920353
0.913081
0.905595
0.869035
0.863661
0.858073
0.852302
0.811249
0.807424
0.803421
0.799255
0.753832
0.751546
0.749097
0.746491
0.696704
0.696006
0.695134
0.694085
0.639912
0.640891
0.641649
0.642181
0.583665
0.586423
0.588871
0.591011
0.528364
0.532975
0.537149
0.540905
0.474565
0.481029
0.486909
0.492247
0.42299
0.431199
0.438678
0.445493
0.374449
0.384169
0.393038
0.401142
0.329655
0.340537
0.350496
0.35963
0.289046
0.300687
0.311391
0.321254
0.252716
0.264734
0.275847
0.28614
0.220493
0.23257
0.243801
0.254259
0.192071
0.203957
0.215071
0.22547
0.16709
0.178597
0.189408
0.199569
0.145178
0.156166
0.166534
0.176318
0.125974
0.136343
0.146164
0.155463
0.109138
0.118818
0.128015
0.13675
0.0943548
0.103297
0.111818
0.11993
0.0813364
0.0895116
0.0973185
0.104768
0.069823
0.0772126
0.0842832
0.0910425
0.0595825
0.0661778
0.072499
0.0785517
0.0504099
0.0562085
0.0617745
0.0671115
0.042124
0.0471282
0.0519378
0.0565554
0.0345641
0.0387789
0.0428344
0.0467323
0.0275856
0.0310177
0.0343235
0.0375039
0.0210565
0.0237135
0.0262748
0.028741
0.0148528
0.0167423
0.0185649
0.0203208
0.00885539
0.0099844
0.0110738
0.0121237
0.00294023
0.00331495
0.00367657
0.00402511
1.20132
1.16888
1.12883
1.08798
1.05259
1.02121
0.993035
0.967754
0.945127
0.924991
0.907201
0.891653
0.878243
0.866902
0.857553
0.850149
0.844635
0.840987
0.83917
1.24581
1.17934
1.12925
1.08524
1.04729
1.01432
0.985257
0.959512
0.936694
0.91653
0.898812
0.883386
0.870123
0.858928
0.849716
0.842427
0.837004
0.833417
0.831633
1.23952
1.17328
1.12077
1.07592
1.03728
1.00381
0.974504
0.948708
0.925975
0.905979
0.888476
0.873282
0.860251
0.84927
0.840247
0.833113
0.827811
0.824305
0.822562
1.2146
1.15425
1.10366
1.06016
1.02239
0.989456
0.960593
0.935214
0.912888
0.893292
0.876176
0.861344
0.848644
0.837953
0.829177
0.822243
0.817092
0.813687
0.811995
1.17867
1.12574
1.07939
1.0387
1.00289
0.971349
0.943547
0.919029
0.897437
0.878482
0.861932
0.8476
0.835334
0.825015
0.816548
0.809859
0.804892
0.801608
0.799978
1.1364
1.09083
1.04954
1.01246
0.979318
0.949784
0.923534
0.900262
0.879699
0.861612
0.845804
0.832106
0.820379
0.810511
0.802413
0.796015
0.791265
0.788125
0.786566
1.09045
1.05163
1.01549
0.98237
0.952292
0.92516
0.900821
0.879098
0.859812
0.842793
0.827883
0.814943
0.803852
0.794511
0.786841
0.780779
0.776277
0.7733
0.771823
1.04237
1.00955
0.978356
0.949249
0.922418
0.89792
0.87573
0.855776
0.837959
0.822169
0.808291
0.796216
0.785847
0.777102
0.769913
0.764226
0.760001
0.757207
0.755821
0.99306
0.965571
0.938992
0.913797
0.89025
0.868495
0.848596
0.830559
0.81435
0.799911
0.787169
0.776047
0.766472
0.758381
0.751719
0.746444
0.742521
0.739926
0.738638
0.94308
0.92035
0.898041
0.876588
0.856275
0.837289
0.819749
0.803715
0.789205
0.776203
0.764673
0.754571
0.745847
0.738456
0.73236
0.727525
0.723926
0.721542
0.720358
0.892776
0.874344
0.855992
0.838091
0.820915
0.80467
0.789502
0.775509
0.762746
0.751234
0.740969
0.731933
0.724101
0.717445
0.711942
0.707569
0.704308
0.702146
0.701071
0.842374
0.827886
0.813223
0.798689
0.784535
0.770967
0.758146
0.746195
0.735195
0.725196
0.716222
0.70828
0.701365
0.695467
0.690576
0.686679
0.683767
0.681833
0.68087
0.792028
0.781229
0.770038
0.758702
0.747448
0.736474
0.72595
0.716011
0.706763
0.698277
0.690601
0.683762
0.677775
0.672645
0.668374
0.66496
0.662403
0.660701
0.659853
0.741867
0.734584
0.726695
0.718409
0.709932
0.701457
0.693158
0.685183
0.677652
0.670659
0.664269
0.658527
0.653465
0.649101
0.64545
0.64252
0.640318
0.63885
0.638116
0.692028
0.68815
0.68343
0.67806
0.672238
0.666157
0.659998
0.653919
0.648056
0.642516
0.637384
0.632718
0.628565
0.624957
0.621917
0.619466
0.617616
0.616379
0.61576
0.642691
0.642137
0.64047
0.637889
0.634598
0.630798
0.62668
0.622416
0.618154
0.614015
0.610097
0.606474
0.603203
0.600329
0.597887
0.595902
0.594397
0.593387
0.592881
0.594091
0.596783
0.598051
0.598125
0.597232
0.595589
0.593402
0.590857
0.588116
0.585311
0.582552
0.579926
0.577502
0.575334
0.573465
0.571932
0.570761
0.569972
0.569575
0.546523
0.552351
0.556414
0.558992
0.56035
0.560727
0.560345
0.559413
0.558099
0.556549
0.554883
0.5532
0.551577
0.550079
0.548758
0.547656
0.546804
0.546226
0.545933
0.500323
0.509123
0.515807
0.520712
0.524152
0.526398
0.527679
0.528239
0.52825
0.527863
0.527215
0.52641
0.525537
0.524668
0.523862
0.523166
0.522616
0.522237
0.522042
0.455855
0.467385
0.476461
0.483491
0.488826
0.49278
0.495551
0.497481
0.498702
0.499376
0.499662
0.499667
0.499486
0.499199
0.498871
0.498553
0.498283
0.498089
0.497986
0.413506
0.427431
0.438611
0.447513
0.454525
0.459976
0.464137
0.467273
0.469583
0.471194
0.47233
0.47307
0.473517
0.473761
0.473869
0.473897
0.473884
0.473859
0.473841
0.373612
0.389514
0.402462
0.412954
0.421405
0.428161
0.43351
0.437707
0.440961
0.443442
0.445318
0.446711
0.447715
0.448435
0.448936
0.449274
0.449491
0.449619
0.449678
0.336415
0.353829
0.368172
0.379951
0.389588
0.397432
0.403779
0.408882
0.412952
0.416171
0.418696
0.420657
0.422159
0.423296
0.424141
0.424751
0.425172
0.425433
0.425563
0.302039
0.320487
0.335843
0.348596
0.359157
0.36787
0.375025
0.380873
0.385624
0.389459
0.392535
0.39498
0.396905
0.398401
0.399542
0.400388
0.400984
0.401361
0.401552
0.27049
0.289521
0.305521
0.318939
0.330165
0.339525
0.347301
0.353733
0.359027
0.363361
0.366886
0.369732
0.372007
0.373802
0.375192
0.376235
0.376978
0.377453
0.377695
0.241688
0.260896
0.277195
0.290988
0.30263
0.312425
0.320638
0.327497
0.333199
0.337914
0.34179
0.344952
0.347506
0.349541
0.351131
0.352334
0.353197
0.353754
0.354037
0.215488
0.234523
0.250815
0.264715
0.276541
0.286571
0.295047
0.302181
0.30816
0.313143
0.317273
0.320668
0.323431
0.325649
0.327393
0.32872
0.329677
0.330298
0.330613
0.191708
0.210276
0.226294
0.240064
0.251864
0.261942
0.270517
0.277784
0.283914
0.289058
0.293348
0.296897
0.299803
0.302148
0.304001
0.305419
0.306445
0.307114
0.307451
0.170145
0.188004
0.203523
0.216956
0.228542
0.238499
0.247023
0.254289
0.260454
0.265656
0.270018
0.273646
0.276631
0.279051
0.280972
0.282447
0.283519
0.284219
0.284571
0.150585
0.167542
0.182374
0.195292
0.2065
0.216187
0.224524
0.231667
0.237759
0.242925
0.247278
0.250914
0.253919
0.256365
0.258314
0.259815
0.26091
0.261626
0.261984
0.132816
0.148719
0.16271
0.174965
0.185654
0.194938
0.202967
0.20988
0.215801
0.220845
0.225112
0.228691
0.231661
0.234087
0.236026
0.237525
0.23862
0.239337
0.239695
0.116631
0.131361
0.144389
0.155858
0.165908
0.174677
0.182294
0.18888
0.194544
0.199387
0.2035
0.206962
0.209845
0.212208
0.214103
0.215572
0.216646
0.217351
0.217699
0.101831
0.1153
0.127269
0.137852
0.147165
0.155324
0.162438
0.168612
0.173942
0.178515
0.182412
0.185704
0.188454
0.190714
0.192532
0.193944
0.194978
0.195656
0.195989
0.0882314
0.100375
0.11121
0.120827
0.129323
0.136792
0.143328
0.149019
0.153947
0.15819
0.161816
0.164888
0.167462
0.169584
0.171294
0.172625
0.1736
0.174238
0.17455
0.0756617
0.0864328
0.0960777
0.104668
0.112281
0.118996
0.124889
0.130035
0.134505
0.138364
0.141671
0.144481
0.146841
0.148791
0.150366
0.151592
0.152491
0.15308
0.153366
0.0639645
0.0733314
0.0817444
0.0892596
0.0959389
0.101846
0.107045
0.111596
0.115558
0.118987
0.121934
0.124443
0.126555
0.128305
0.129719
0.130821
0.13163
0.132159
0.132413
0.0529953
0.0609368
0.0680879
0.0744919
0.0801974
0.085255
0.0897157
0.0936294
0.0970442
0.100006
0.102556
0.104733
0.106568
0.10809
0.109322
0.110283
0.110988
0.111449
0.111669
0.0426198
0.0491228
0.0549909
0.0602568
0.0649577
0.0691327
0.0728217
0.0760642
0.0788987
0.0813615
0.0834863
0.0853027
0.0868368
0.0881104
0.089142
0.0899468
0.0905373
0.0909233
0.0911064
0.0327117
0.0377687
0.0423397
0.0464484
0.050122
0.0533896
0.0562811
0.0588265
0.061055
0.0629944
0.0646701
0.0661046
0.0673174
0.068325
0.0691416
0.0697789
0.0702465
0.0705523
0.0706958
0.0231494
0.0267577
0.0300233
0.0329623
0.0355932
0.0379362
0.0400119
0.0418413
0.0434451
0.0448425
0.0460514
0.0470873
0.0479638
0.0486923
0.0492829
0.049744
0.0500824
0.0503039
0.0504062
0.013815
0.0159756
0.0179329
0.019696
0.0212756
0.0226836
0.0239322
0.0250336
0.0260002
0.0268432
0.0275731
0.028199
0.0287288
0.0291693
0.0295265
0.0298054
0.0300103
0.0301446
0.030205
0.00458644
0.00530459
0.00595576
0.00654288
0.00706937
0.00753903
0.00795587
0.00832396
0.00864726
0.0089295
0.00917407
0.00938392
0.00956165
0.00970948
0.00982936
0.009923
0.00999182
0.0100371
0.0100567
)
;

boundaryField
{
    leftWall
    {
        type            fixedFluxPressure;
        gradient        uniform 0;
        value           nonuniform List<scalar> 
50
(
1365.75
1367.24
1370.23
1374.73
1380.76
1388.3
1397.36
1407.88
1426.73
1459.23
1498.4
1544.06
1595.97
1653.79
1717.16
1785.66
1858.84
1936.25
2017.42
2101.79
2188.91
2279.01
2371.02
2459.21
2551.28
2518.11
804.513
-1.20938
-1.12948
-1.03413
-0.950091
-0.869761
-0.79432
-0.723657
-0.657931
-0.596706
-0.539449
-0.485891
-0.435934
-0.389348
-0.345727
-0.304568
-0.265414
-0.227922
-0.191851
-0.157017
-0.123258
-0.0905059
-0.0584742
-0.0256267
)
;
    }
    rightWall
    {
        type            fixedFluxPressure;
        gradient        uniform 0;
        value           nonuniform List<scalar> 
50
(
0.853382
0.853044
0.85235
0.8513
0.849895
0.848137
0.846026
0.843565
0.83917
0.831633
0.822562
0.811995
0.799978
0.786566
0.771823
0.755821
0.738638
0.720358
0.701071
0.68087
0.659853
0.638116
0.61576
0.592881
0.569575
0.545933
0.522042
0.497986
0.473841
0.449678
0.425563
0.401552
0.377695
0.354037
0.330613
0.307451
0.284571
0.261984
0.239695
0.217699
0.195989
0.17455
0.153366
0.132413
0.111669
0.0911064
0.0706958
0.0504062
0.030205
0.0100567
)
;
    }
    lowerWall
    {
        type            fixedFluxPressure;
        gradient        uniform 0;
        value           nonuniform List<scalar> 
62
(
1365.75
1357.22
1338.63
1310.32
1271.93
1222.81
1162.09
1088.52
1000.93
895.904
772.415
634.285
448.404
214.49
59.6718
8.43424
3.85263
3.24855
2.98567
2.73139
2.55298
2.44446
2.39354
2.39354
2.37731
2.34019
2.28408
2.21047
2.11942
2.00838
1.87633
1.34991
1.30985
1.30058
1.26963
1.12268
1.12379
1.12604
1.12938
1.1339
1.13911
1.14176
1.14509
1.12268
1.1148
1.09842
1.07685
1.05282
1.02815
1.00393
0.980922
0.959505
0.939974
0.922388
0.906849
0.893309
0.881803
0.872252
0.864684
0.859013
0.855276
0.853382
)
;
    }
    atmosphere
    {
        type            totalPressure;
        rho             rho;
        psi             none;
        gamma           1;
        p0              uniform 0;
        value           nonuniform List<scalar> 
46
(
-0.00812409
-0.00808325
-0.00785928
-0.00752643
-0.0070943
-0.00657549
-0.00598548
-0.00534226
-0.00466569
-0.00397672
-0.00329646
-0.00264522
-0.00204146
-0.00150089
-0.0010358
-0.000654612
-0.000361658
-0.000157382
-3.87551e-05
-1.08363e-08
0
0
0
0
0
0
0
0
0
0
0
0
0
0
0
0
0
0
0
0
0
0
0
0
0
0
)
;
    }
    defaultFaces
    {
        type            empty;
    }
}


// ************************************************************************* //
