/*--------------------------------*- C++ -*----------------------------------*\
| =========                 |                                                 |
| \\      /  F ield         | OpenFOAM: The Open Source CFD Toolbox           |
|  \\    /   O peration     | Version:  5.x                                   |
|   \\  /    A nd           | Web:      www.OpenFOAM.org                      |
|    \\/     M anipulation  |                                                 |
\*---------------------------------------------------------------------------*/
FoamFile
{
    version     2.0;
    format      ascii;
    class       surfaceScalarField;
    location    "0.05";
    object      phi;
}
// * * * * * * * * * * * * * * * * * * * * * * * * * * * * * * * * * * * * * //

dimensions      [0 3 -1 0 0 0 0];

internalField   nonuniform List<scalar> 
4432
(
3.19315e-06
-3.19315e-06
6.5851e-06
-3.39197e-06
1.0004e-05
-3.41887e-06
1.35667e-05
-3.56268e-06
1.73473e-05
-3.78062e-06
2.14279e-05
-4.08064e-06
2.59171e-05
-4.48925e-06
3.09647e-05
-5.04754e-06
3.67962e-05
-5.83158e-06
4.37036e-05
-6.90732e-06
5.24919e-05
-8.78838e-06
6.31784e-05
-1.06865e-05
7.69743e-05
-1.37959e-05
9.60794e-05
-1.9105e-05
0.000115357
-1.92778e-05
0.000102172
1.31855e-05
8.11122e-05
2.10596e-05
6.57803e-05
1.53313e-05
5.01613e-05
1.56196e-05
3.62171e-05
1.39446e-05
2.34918e-05
1.27257e-05
1.16555e-05
1.18348e-05
1.16554e-05
3.18964e-06
-6.38282e-06
6.57398e-06
-6.77631e-06
9.98584e-06
-6.83071e-06
1.35391e-05
-7.11595e-06
1.73066e-05
-7.54811e-06
2.13686e-05
-8.14265e-06
2.58305e-05
-8.95116e-06
3.0838e-05
-1.00551e-05
3.65934e-05
-1.15871e-05
4.34271e-05
-1.3741e-05
5.18277e-05
-1.71891e-05
6.20144e-05
-2.08732e-05
7.5996e-05
-2.77775e-05
9.44185e-05
-3.75275e-05
0.000118752
-4.3611e-05
0.00013961
-7.67316e-06
0.000130753
2.99175e-05
9.92913e-05
4.67921e-05
6.58817e-05
4.90299e-05
4.2197e-05
3.76291e-05
2.63994e-05
2.85233e-05
1.3133e-05
2.51001e-05
2.47878e-05
3.17196e-06
-9.55477e-06
6.53217e-06
-1.01365e-05
9.91931e-06
-1.02179e-05
1.34434e-05
-1.064e-05
1.71741e-05
-1.12788e-05
2.11875e-05
-1.21561e-05
2.55821e-05
-1.33458e-05
3.04917e-05
-1.49646e-05
3.60939e-05
-1.71894e-05
4.26947e-05
-2.03418e-05
5.06067e-05
-2.5101e-05
6.04941e-05
-3.07606e-05
7.54838e-05
-4.27672e-05
9.37952e-05
-5.58389e-05
0.000105631
-5.54466e-05
0.000119926
-2.19686e-05
0.000109673
4.01712e-05
8.03634e-05
7.61013e-05
5.44099e-05
7.49835e-05
3.75111e-05
5.45278e-05
2.4646e-05
4.13889e-05
1.26109e-05
3.71348e-05
3.73983e-05
3.14495e-06
-1.26997e-05
6.46963e-06
-1.34611e-05
9.8199e-06
-1.35681e-05
1.33006e-05
-1.41208e-05
1.6977e-05
-1.49552e-05
2.0919e-05
-1.60982e-05
2.52154e-05
-1.76422e-05
2.99829e-05
-1.97321e-05
3.53714e-05
-2.25779e-05
4.16304e-05
-2.66007e-05
4.89583e-05
-3.24289e-05
5.79422e-05
-3.97446e-05
7.11456e-05
-5.59707e-05
8.45289e-05
-6.92222e-05
8.86412e-05
-5.95588e-05
8.64846e-05
-1.98123e-05
7.10795e-05
5.55758e-05
5.29307e-05
9.4251e-05
4.22894e-05
8.56248e-05
3.30889e-05
6.37266e-05
2.32068e-05
5.12713e-05
1.24189e-05
4.79231e-05
4.98168e-05
3.10897e-06
-1.58086e-05
6.38713e-06
-1.67393e-05
9.689e-06
-1.687e-05
1.31131e-05
-1.75449e-05
1.67189e-05
-1.8561e-05
2.05691e-05
-1.99483e-05
2.47402e-05
-2.18133e-05
2.93292e-05
-2.43211e-05
3.44528e-05
-2.77015e-05
4.02961e-05
-3.24439e-05
4.69378e-05
-3.90707e-05
5.48137e-05
-4.76205e-05
6.52456e-05
-6.64025e-05
7.48205e-05
-7.87973e-05
7.391e-05
-5.86486e-05
5.70562e-05
-2.95764e-06
4.04423e-05
7.21884e-05
3.54851e-05
9.92079e-05
3.46279e-05
8.64812e-05
2.98967e-05
6.84579e-05
2.22631e-05
5.89048e-05
1.26483e-05
5.7538e-05
6.2465e-05
3.06444e-06
-1.88731e-05
6.28589e-06
-1.99608e-05
9.5287e-06
-2.01128e-05
1.2884e-05
-2.09003e-05
1.64049e-05
-2.20818e-05
2.01455e-05
-2.36888e-05
2.41691e-05
-2.58369e-05
2.85518e-05
-2.87037e-05
3.33728e-05
-3.25226e-05
3.8758e-05
-3.78291e-05
4.46574e-05
-4.49701e-05
5.141e-05
-5.43731e-05
5.95247e-05
-7.45173e-05
6.63589e-05
-8.56314e-05
5.98461e-05
-5.2136e-05
3.58888e-05
2.09998e-05
2.49453e-05
8.31293e-05
2.80932e-05
9.60596e-05
3.04125e-05
8.4162e-05
2.76986e-05
7.11728e-05
2.18419e-05
6.4761e-05
1.34499e-05
6.59296e-05
7.59146e-05
3.01235e-06
-2.18854e-05
6.16783e-06
-2.31163e-05
9.34227e-06
-2.32873e-05
1.26186e-05
-2.41765e-05
1.60426e-05
-2.55058e-05
1.96598e-05
-2.7306e-05
2.352e-05
-2.96972e-05
2.76782e-05
-3.28619e-05
3.2179e-05
-3.70233e-05
3.70914e-05
-4.27415e-05
4.22259e-05
-5.01045e-05
4.78587e-05
-6.00058e-05
5.41366e-05
-8.07952e-05
5.87655e-05
-9.02604e-05
4.6859e-05
-4.02303e-05
2.39978e-05
4.38611e-05
2.0036e-05
8.70908e-05
2.53118e-05
9.07842e-05
2.78087e-05
8.16657e-05
2.62617e-05
7.272e-05
2.2061e-05
6.89606e-05
1.53193e-05
7.26712e-05
9.1234e-05
2.95435e-06
-2.48398e-05
6.03458e-06
-2.61965e-05
9.13297e-06
-2.63856e-05
1.2322e-05
-2.73656e-05
1.56404e-05
-2.88242e-05
1.91247e-05
-3.07903e-05
2.28125e-05
-3.33849e-05
2.67389e-05
-3.67883e-05
3.09236e-05
-4.1208e-05
3.54078e-05
-4.72257e-05
3.9774e-05
-5.44708e-05
4.42755e-05
-6.45073e-05
4.87482e-05
-8.5268e-05
5.09906e-05
-9.25029e-05
3.60912e-05
-2.53315e-05
1.89951e-05
6.09579e-05
1.93245e-05
8.67615e-05
2.38928e-05
8.62163e-05
2.60152e-05
7.95432e-05
2.54253e-05
7.33093e-05
2.28988e-05
7.14865e-05
1.72945e-05
7.82755e-05
0.000108528
2.72704e-06
-2.72704e-06
5.03749e-06
-2.31076e-06
6.48614e-06
-1.44848e-06
7.2075e-06
-7.21241e-07
7.40583e-06
-1.98489e-07
7.2641e-06
1.42213e-07
6.91161e-06
3.52341e-07
6.43747e-06
4.74684e-07
5.89244e-06
5.44515e-07
5.3122e-06
5.8092e-07
4.71363e-06
5.97862e-07
4.11086e-06
6.03002e-07
3.50833e-06
6.02011e-07
2.91122e-06
5.97397e-07
2.31895e-06
5.91862e-07
1.73323e-06
5.86158e-07
1.15162e-06
5.81443e-07
5.74378e-07
5.77503e-07
5.73957e-07
2.86353e-06
-5.59033e-06
5.27687e-06
-4.72436e-06
6.74751e-06
-2.91912e-06
7.45387e-06
-1.42698e-06
7.63253e-06
-3.77387e-07
7.47853e-06
2.97097e-07
7.11457e-06
7.15808e-07
6.62606e-06
9.64354e-07
6.06429e-06
1.10519e-06
5.46642e-06
1.17942e-06
4.84972e-06
1.21334e-06
4.22894e-06
1.22418e-06
3.60854e-06
1.22174e-06
2.99404e-06
1.21257e-06
2.38466e-06
1.2007e-06
1.7822e-06
1.18914e-06
1.18399e-06
1.17919e-06
5.90165e-07
1.17196e-06
1.16375e-06
3.03641e-06
-8.62657e-06
5.56386e-06
-7.2519e-06
7.0083e-06
-4.3636e-06
7.64334e-06
-2.06132e-06
7.75368e-06
-4.87895e-07
7.54606e-06
5.05723e-07
7.14525e-06
1.11616e-06
6.63471e-06
1.47569e-06
6.06065e-06
1.67791e-06
5.45645e-06
1.78419e-06
4.83716e-06
1.8319e-06
4.21588e-06
1.84596e-06
3.59621e-06
1.84066e-06
2.98316e-06
1.82606e-06
2.37567e-06
1.8077e-06
1.77531e-06
1.79001e-06
1.17932e-06
1.77474e-06
5.87844e-07
1.76389e-06
1.75127e-06
3.31177e-06
-1.19382e-05
6.02297e-06
-9.96301e-06
7.41236e-06
-5.75299e-06
7.92759e-06
-2.57573e-06
7.93527e-06
-4.95673e-07
7.65652e-06
7.85271e-07
7.20943e-06
1.5626e-06
6.67005e-06
2.0159e-06
6.07862e-06
2.26853e-06
5.46396e-06
2.39954e-06
4.83877e-06
2.45645e-06
4.21418e-06
2.47091e-06
3.59299e-06
2.46121e-06
2.97939e-06
2.44018e-06
2.37213e-06
2.41463e-06
1.77231e-06
2.39021e-06
1.1772e-06
2.36935e-06
5.86742e-07
2.35472e-06
2.33777e-06
3.69926e-06
-1.56374e-05
6.68777e-06
-1.29512e-05
7.97247e-06
-7.03763e-06
8.30606e-06
-2.90861e-06
8.17016e-06
-3.59921e-07
7.79773e-06
1.15845e-06
7.29129e-06
2.06851e-06
6.71532e-06
2.5927e-06
6.10189e-06
2.88136e-06
5.47391e-06
3.0281e-06
4.84113e-06
3.08876e-06
4.21227e-06
3.10025e-06
3.58909e-06
3.08402e-06
2.97472e-06
3.05504e-06
2.36768e-06
3.02131e-06
1.76853e-06
2.98957e-06
1.17454e-06
2.96284e-06
5.85347e-07
2.94428e-06
2.92297e-06
4.15977e-06
-1.97971e-05
7.59558e-06
-1.63866e-05
8.70088e-06
-8.14288e-06
8.77151e-06
-2.97876e-06
8.45175e-06
-4.03318e-08
7.96327e-06
1.64753e-06
7.38618e-06
2.64503e-06
6.76721e-06
3.21227e-06
6.12806e-06
3.51994e-06
5.48457e-06
3.67202e-06
4.84298e-06
3.7301e-06
4.20918e-06
3.73461e-06
3.58374e-06
3.70921e-06
2.96856e-06
3.67052e-06
2.36189e-06
3.62758e-06
1.76369e-06
3.58792e-06
1.17117e-06
3.55499e-06
5.83578e-07
3.53224e-06
3.50647e-06
5.28578e-06
-2.50827e-05
8.92292e-06
-2.00236e-05
9.61239e-06
-8.83229e-06
9.30924e-06
-2.6751e-06
8.76979e-06
4.99071e-07
8.14488e-06
2.27293e-06
7.48897e-06
3.30042e-06
6.82263e-06
3.879e-06
6.15525e-06
4.18687e-06
5.49482e-06
4.33281e-06
4.84359e-06
4.3812e-06
4.20446e-06
4.3742e-06
3.57665e-06
4.33674e-06
2.96075e-06
4.2865e-06
2.35468e-06
4.23326e-06
1.75773e-06
4.18502e-06
1.16704e-06
4.14546e-06
5.81416e-07
4.11822e-06
4.08786e-06
1.05184e-05
-3.56011e-05
1.1415e-05
-2.09197e-05
1.07417e-05
-8.15884e-06
9.90056e-06
-1.83339e-06
9.09895e-06
1.30084e-06
8.33281e-06
3.0396e-06
7.5945e-06
4.03858e-06
6.87877e-06
4.59521e-06
6.18192e-06
4.88378e-06
5.50376e-06
5.01147e-06
4.84245e-06
5.04259e-06
4.19779e-06
5.01917e-06
3.56764e-06
4.96664e-06
2.95119e-06
4.90287e-06
2.346e-06
4.8382e-06
1.75061e-06
4.78055e-06
1.16213e-06
4.73386e-06
5.78845e-07
4.70171e-06
4.66669e-06
6.05855e-06
-3.08983e-05
1.23387e-05
-3.24766e-05
1.86458e-05
-3.26928e-05
2.51086e-05
-3.38284e-05
3.17854e-05
-3.5501e-05
3.87263e-05
-3.77313e-05
4.59751e-05
-4.06337e-05
5.35533e-05
-4.43664e-05
6.14699e-05
-4.91246e-05
6.952e-05
-5.52758e-05
7.78742e-05
-6.28249e-05
8.56451e-05
-7.22782e-05
9.17118e-05
-9.13347e-05
9.06945e-05
-9.14857e-05
5.3022e-05
1.23408e-05
3.74474e-05
7.65335e-05
4.11849e-05
8.30229e-05
4.75563e-05
7.98448e-05
5.15444e-05
7.55554e-05
5.33093e-05
7.15442e-05
5.54368e-05
6.93587e-05
6.42743e-05
6.94377e-05
7.18674e-05
0.000100935
5.70268e-06
-3.6601e-05
1.15569e-05
-3.83308e-05
1.74264e-05
-3.85624e-05
2.3398e-05
-3.98e-05
2.94999e-05
-4.16029e-05
3.57493e-05
-4.39807e-05
4.21468e-05
-4.70311e-05
4.86619e-05
-5.08815e-05
5.52194e-05
-5.56821e-05
6.16246e-05
-6.1681e-05
6.7664e-05
-6.88644e-05
7.2839e-05
-7.74531e-05
7.60962e-05
-9.45919e-05
6.8292e-05
-8.36817e-05
3.93173e-05
4.13149e-05
3.57428e-05
8.01072e-05
3.944e-05
7.93247e-05
4.39518e-05
7.53325e-05
4.79673e-05
7.15398e-05
5.19424e-05
6.75688e-05
5.77461e-05
6.35544e-05
6.79997e-05
5.91832e-05
5.47464e-05
8.51199e-05
5.30987e-06
-4.19109e-05
1.07041e-05
-4.37251e-05
1.61045e-05
-4.39628e-05
2.15589e-05
-4.52544e-05
2.70712e-05
-4.71152e-05
3.26337e-05
-4.95432e-05
3.8218e-05
-5.26153e-05
4.37624e-05
-5.64258e-05
4.91568e-05
-6.10765e-05
5.42048e-05
-6.6729e-05
5.86321e-05
-7.32917e-05
6.20933e-05
-8.09143e-05
6.38317e-05
-9.63303e-05
4.94491e-05
-6.9299e-05
3.17347e-05
5.90292e-05
3.26647e-05
7.91772e-05
3.65692e-05
7.54199e-05
4.04415e-05
7.146e-05
4.41747e-05
6.7807e-05
4.79606e-05
6.37821e-05
5.2187e-05
5.93274e-05
5.72505e-05
5.41192e-05
4.73956e-05
6.46012e-05
4.89376e-06
-4.68047e-05
9.81275e-06
-4.86441e-05
1.47314e-05
-4.88814e-05
1.96638e-05
-5.01869e-05
2.45958e-05
-5.20471e-05
2.95027e-05
-5.44501e-05
3.43394e-05
-5.7452e-05
3.903e-05
-6.11164e-05
4.34574e-05
-6.55039e-05
4.74395e-05
-7.07112e-05
5.07405e-05
-7.65927e-05
5.3123e-05
-8.32967e-05
5.40842e-05
-9.72915e-05
3.47885e-05
-5.00031e-05
2.70804e-05
6.67367e-05
2.98119e-05
7.64449e-05
3.34418e-05
7.17898e-05
3.68208e-05
6.80809e-05
4.00734e-05
6.45544e-05
4.32319e-05
6.0623e-05
4.63675e-05
5.6191e-05
4.94965e-05
5.09898e-05
4.461e-05
5.22824e-05
4.46742e-06
-5.12721e-05
8.91099e-06
-5.30877e-05
1.33503e-05
-5.33207e-05
1.77721e-05
-5.46087e-05
2.21498e-05
-5.64248e-05
2.64491e-05
-5.87493e-05
3.06171e-05
-6.162e-05
3.45757e-05
-6.5075e-05
3.82153e-05
-6.91436e-05
4.1381e-05
-7.38769e-05
4.38923e-05
-7.9104e-05
4.55996e-05
-8.5004e-05
4.61534e-05
-9.78453e-05
2.65166e-05
-3.0366e-05
2.36346e-05
6.96181e-05
2.69349e-05
7.31433e-05
3.02442e-05
6.84804e-05
3.32417e-05
6.50835e-05
3.60595e-05
6.17362e-05
3.86782e-05
5.8004e-05
4.10603e-05
5.38088e-05
4.30247e-05
4.90247e-05
4.35424e-05
4.40925e-05
4.04161e-06
-5.53137e-05
8.0209e-06
-5.70669e-05
1.19945e-05
-5.72943e-05
1.59278e-05
-5.85421e-05
1.97871e-05
-6.0284e-05
2.35334e-05
-6.24956e-05
2.71127e-05
-6.51994e-05
3.04515e-05
-6.84139e-05
3.34542e-05
-7.21463e-05
3.59952e-05
-7.64178e-05
3.79424e-05
-8.10512e-05
3.9202e-05
-8.62635e-05
3.95009e-05
-9.81442e-05
2.1058e-05
-1.19233e-05
2.04642e-05
7.02119e-05
2.40049e-05
6.96016e-05
2.71109e-05
6.53749e-05
2.98254e-05
6.23696e-05
3.22674e-05
5.92943e-05
3.44126e-05
5.5858e-05
3.61964e-05
5.20248e-05
3.74638e-05
4.77567e-05
4.30524e-05
3.79548e-05
3.6247e-06
-5.89384e-05
7.15865e-06
-6.06009e-05
1.06874e-05
-6.08231e-05
1.41608e-05
-6.20155e-05
1.75418e-05
-6.3665e-05
2.07906e-05
-6.57444e-05
2.38558e-05
-6.82646e-05
2.66719e-05
-7.12299e-05
2.91587e-05
-7.46331e-05
3.12175e-05
-7.84766e-05
3.27547e-05
-8.25885e-05
3.37148e-05
-8.72236e-05
3.38801e-05
-9.83093e-05
1.54071e-05
6.54878e-06
1.75184e-05
6.81006e-05
2.12681e-05
6.58516e-05
2.4224e-05
6.242e-05
2.6683e-05
5.99104e-05
2.87826e-05
5.71939e-05
3.05261e-05
5.41137e-05
3.18724e-05
5.06788e-05
3.27281e-05
4.69009e-05
4.28302e-05
3.29504e-05
3.2227e-06
-6.21611e-05
6.33503e-06
-6.37132e-05
9.44406e-06
-6.39321e-05
1.24892e-05
-6.50606e-05
1.54327e-05
-6.66086e-05
1.82365e-05
-6.85483e-05
2.08538e-05
-7.08819e-05
2.3228e-05
-7.36041e-05
2.52937e-05
-7.66988e-05
2.69741e-05
-8.0157e-05
2.8204e-05
-8.38183e-05
2.8949e-05
-8.79687e-05
2.90065e-05
-9.83669e-05
1.20292e-05
2.35254e-05
1.54761e-05
6.46545e-05
1.90949e-05
6.22324e-05
2.17721e-05
5.97427e-05
2.39151e-05
5.77665e-05
2.56668e-05
5.54413e-05
2.70533e-05
5.27269e-05
2.80598e-05
4.96728e-05
2.86365e-05
4.63244e-05
4.27562e-05
2.87103e-05
2.83948e-06
-6.50006e-05
5.55626e-06
-6.643e-05
8.27264e-06
-6.66484e-05
1.09215e-05
-6.77095e-05
1.34668e-05
-6.9154e-05
1.58732e-05
-7.09548e-05
1.80995e-05
-7.31081e-05
2.00979e-05
-7.56026e-05
2.18157e-05
-7.84167e-05
2.31937e-05
-8.15349e-05
2.41862e-05
-8.48109e-05
2.47695e-05
-8.8552e-05
2.47273e-05
-9.83249e-05
1.18647e-05
3.63875e-05
1.4762e-05
6.17581e-05
1.76637e-05
5.93302e-05
1.9832e-05
5.7574e-05
2.15556e-05
5.60421e-05
2.29269e-05
5.40697e-05
2.39703e-05
5.16834e-05
2.46847e-05
4.8959e-05
2.50473e-05
4.59622e-05
4.27788e-05
2.50249e-05
2.47712e-06
-6.74777e-05
4.82484e-06
-6.87777e-05
7.17569e-06
-6.89993e-05
9.45929e-06
-6.99931e-05
1.16424e-05
-7.13371e-05
1.36934e-05
-7.30058e-05
1.55765e-05
-7.49912e-05
1.72523e-05
-7.72784e-05
1.86791e-05
-7.98434e-05
1.98109e-05
-8.26667e-05
2.06165e-05
-8.56164e-05
2.10768e-05
-8.90123e-05
2.09593e-05
-9.82074e-05
1.29816e-05
4.43646e-05
1.47821e-05
5.99583e-05
1.67661e-05
5.7346e-05
1.83184e-05
5.60217e-05
1.95583e-05
5.48022e-05
2.05208e-05
5.31077e-05
2.12214e-05
5.09831e-05
2.1665e-05
4.85156e-05
2.1843e-05
4.57841e-05
4.28806e-05
2.17411e-05
2.13633e-06
-6.96141e-05
4.14061e-06
-7.0782e-05
6.15201e-06
-7.10107e-05
8.09939e-06
-7.19404e-05
9.95258e-06
-7.31902e-05
1.16842e-05
-7.47374e-05
1.32638e-05
-7.65709e-05
1.46594e-05
-7.86739e-05
1.58382e-05
-8.10223e-05
1.67652e-05
-8.35937e-05
1.74217e-05
-8.6273e-05
1.77884e-05
-8.93791e-05
1.76162e-05
-9.8035e-05
1.352e-05
4.84602e-05
1.48032e-05
5.86764e-05
1.61071e-05
5.60424e-05
1.70951e-05
5.50338e-05
1.78418e-05
5.40561e-05
1.83796e-05
5.25706e-05
1.87323e-05
5.06309e-05
1.89126e-05
4.8335e-05
1.89189e-05
4.57777e-05
4.30571e-05
1.87427e-05
1.81686e-06
-7.14309e-05
3.5018e-06
-7.24669e-05
5.19808e-06
-7.2707e-05
6.83577e-06
-7.35781e-05
8.38771e-06
-7.47422e-05
9.83063e-06
-7.61802e-05
1.11392e-05
-7.78794e-05
1.22877e-05
-7.98225e-05
1.32507e-05
-8.19852e-05
1.4e-05
-8.4343e-05
1.45318e-05
-8.68048e-05
1.48198e-05
-8.96672e-05
1.45693e-05
-9.77846e-05
1.3538e-05
4.94917e-05
1.47491e-05
5.74667e-05
1.56117e-05
5.518e-05
1.60944e-05
5.45511e-05
1.63356e-05
5.38152e-05
1.64255e-05
5.24805e-05
1.64176e-05
5.06387e-05
1.63361e-05
4.84167e-05
1.6179e-05
4.59348e-05
4.33024e-05
1.5934e-05
1.51687e-06
-7.29478e-05
2.90452e-06
-7.38545e-05
4.30773e-06
-7.41102e-05
5.65842e-06
-7.49288e-05
6.93305e-06
-7.60168e-05
8.1119e-06
-7.73591e-05
9.17481e-06
-7.89423e-05
1.01027e-05
-8.07504e-05
1.08764e-05
-8.27589e-05
1.14743e-05
-8.49409e-05
1.19041e-05
-8.72345e-05
1.20963e-05
-8.98594e-05
1.19528e-05
-9.76413e-05
1.36406e-05
4.78045e-05
1.49233e-05
5.61846e-05
1.53997e-05
5.47039e-05
1.53229e-05
5.46281e-05
1.49851e-05
5.41529e-05
1.45736e-05
5.28919e-05
1.41808e-05
5.10313e-05
1.38362e-05
4.87614e-05
1.35278e-05
4.62432e-05
4.36025e-05
1.32277e-05
1.23601e-06
-7.41838e-05
2.34389e-06
-7.49624e-05
3.47237e-06
-7.52387e-05
4.55438e-06
-7.60107e-05
5.57088e-06
-7.70333e-05
6.50485e-06
-7.8293e-05
7.3402e-06
-7.97776e-05
8.06426e-06
-8.14744e-05
8.66494e-06
-8.33596e-05
9.14469e-06
-8.54206e-05
9.54669e-06
-8.76366e-05
9.55678e-06
-8.98694e-05
1.10813e-05
-9.91657e-05
1.44619e-05
4.44238e-05
1.58501e-05
5.47963e-05
1.57081e-05
5.48454e-05
1.48104e-05
5.55259e-05
1.37163e-05
5.52472e-05
1.27068e-05
5.39016e-05
1.18985e-05
5.18398e-05
1.12994e-05
4.9361e-05
1.08665e-05
4.66766e-05
4.39278e-05
1.05414e-05
9.77977e-07
-7.51618e-05
1.82184e-06
-7.58063e-05
2.69601e-06
-7.61129e-05
3.53146e-06
-7.68461e-05
4.31345e-06
-7.78153e-05
5.02624e-06
-7.90058e-05
5.65495e-06
-8.04063e-05
6.18629e-06
-8.20058e-05
6.6015e-06
-8.37749e-05
6.90066e-06
-8.57197e-05
7.24118e-06
-8.79772e-05
6.70764e-06
-8.93358e-05
9.25359e-06
-0.000101712
1.65968e-05
3.70802e-05
1.81754e-05
5.32175e-05
1.67301e-05
5.62901e-05
1.45114e-05
5.77445e-05
1.23749e-05
5.73837e-05
1.06504e-05
5.56263e-05
9.41488e-06
5.30754e-05
8.59957e-06
5.01763e-05
8.09609e-06
4.71803e-05
4.42254e-05
7.79857e-06
7.38969e-07
-7.59008e-05
1.36026e-06
-7.64275e-05
2.0206e-06
-7.67732e-05
2.6465e-06
-7.74721e-05
3.22856e-06
-7.83973e-05
3.75546e-06
-7.95327e-05
4.21403e-06
-8.0865e-05
4.58374e-06
-8.23755e-05
4.83785e-06
-8.40289e-05
4.84157e-06
-8.57234e-05
4.54864e-06
-8.76843e-05
2.20523e-06
-8.69924e-05
-2.62057e-06
-9.6886e-05
1.98779e-05
1.45815e-05
2.25933e-05
5.05028e-05
1.86171e-05
6.0267e-05
1.42248e-05
6.21369e-05
1.0665e-05
6.09437e-05
8.13712e-06
5.81545e-05
6.52312e-06
5.46895e-05
5.58836e-06
5.11108e-05
5.11541e-06
4.76533e-05
4.44086e-05
4.93209e-06
5.55971e-07
-7.64567e-05
9.94079e-07
-7.68656e-05
1.46706e-06
-7.72462e-05
1.9212e-06
-7.79262e-05
2.34e-06
-7.88162e-05
2.71065e-06
-7.99034e-05
3.01456e-06
-8.11689e-05
3.22361e-06
-8.25846e-05
3.34764e-06
-8.4153e-05
3.31131e-06
-8.56871e-05
2.90263e-06
-8.72756e-05
7.50694e-06
-9.15966e-05
4.09777e-07
-8.97887e-05
3.10026e-05
-1.60118e-05
3.18599e-05
4.96464e-05
2.11696e-05
7.09582e-05
1.33332e-05
6.99736e-05
8.00247e-06
6.62745e-05
4.74556e-06
6.14114e-05
2.9654e-06
5.64697e-05
2.1182e-06
5.19579e-05
1.84228e-06
4.7929e-05
4.4354e-05
1.89667e-06
2.76461e-07
-7.67332e-05
4.79365e-07
-7.70685e-05
7.16329e-07
-7.74832e-05
9.2762e-07
-7.81375e-05
1.10743e-06
-7.8996e-05
1.24128e-06
-8.00372e-05
1.30396e-06
-8.12315e-05
1.28918e-06
-8.25699e-05
1.10323e-06
-8.39671e-05
1.99531e-06
-8.65791e-05
4.00237e-06
-8.92828e-05
2.7934e-05
-0.000115528
4.56254e-05
-0.00010748
7.58102e-05
-4.61961e-05
4.72338e-05
7.82228e-05
2.41112e-05
9.40812e-05
1.0516e-05
8.35689e-05
3.41195e-06
7.33785e-05
-2.3003e-09
6.48255e-05
-1.51586e-06
5.79834e-05
-1.93837e-06
5.23805e-05
-1.77215e-06
4.77627e-05
4.39014e-05
-1.31939e-06
-6.36444e-07
-7.60967e-05
-1.38368e-06
-7.63213e-05
-2.05213e-06
-7.6815e-05
-2.79483e-06
-7.7395e-05
-3.56651e-06
-7.82244e-05
-4.35432e-06
-7.92496e-05
-5.04231e-06
-8.05438e-05
-5.34673e-06
-8.22656e-05
-5.77786e-06
-8.35362e-05
-1.69631e-06
-9.06606e-05
1.68135e-05
-0.000107792
2.90238e-05
-0.000127738
8.0644e-05
-0.0001591
6.09981e-05
-2.65499e-05
5.98412e-05
7.93798e-05
2.51238e-05
0.000128798
3.28977e-06
0.000105403
-4.37576e-06
8.1044e-05
-6.89246e-06
6.73422e-05
-7.21253e-06
5.83036e-05
-6.63132e-06
5.17994e-05
-5.6988e-06
4.68304e-05
4.28674e-05
-4.66437e-06
-3.32343e-06
-7.27731e-05
-6.75007e-06
-7.28956e-05
-1.02366e-05
-7.33269e-05
-1.37442e-05
-7.38874e-05
-1.72661e-05
-7.47031e-05
-2.06438e-05
-7.58728e-05
-2.35413e-05
-7.76472e-05
-2.5579e-05
-8.02281e-05
-2.43492e-05
-8.47657e-05
-1.79468e-05
-9.70637e-05
-5.54935e-06
-0.00012019
1.09257e-06
-0.000134381
5.16495e-06
-0.000163173
-3.05584e-06
-1.8329e-05
-2.52151e-05
0.000101539
-2.54372e-05
0.00012902
-2.07157e-05
0.000100681
-1.83684e-05
7.86967e-05
-1.61329e-05
6.51068e-05
-1.38718e-05
5.60425e-05
-1.17204e-05
4.96481e-05
-9.75623e-06
4.48665e-05
4.11183e-05
-8.00689e-06
-3.51597e-06
-6.92572e-05
-6.79455e-06
-6.96204e-05
-1.02629e-05
-6.98593e-05
-1.38549e-05
-7.02949e-05
-1.76243e-05
-7.09329e-05
-2.16195e-05
-7.18763e-05
-2.60139e-05
-7.32522e-05
-3.09527e-05
-7.52898e-05
-3.65434e-05
-7.91741e-05
-4.84651e-05
-8.51417e-05
-7.58515e-05
-9.28038e-05
-0.000100471
-0.000109761
-0.00016095
-0.000102695
-0.000159356
-1.99231e-05
-0.000119133
6.13158e-05
-7.3412e-05
8.32998e-05
-4.73462e-05
7.46155e-05
-3.39292e-05
6.528e-05
-2.59441e-05
5.71219e-05
-2.06058e-05
5.07043e-05
-1.66857e-05
4.57281e-05
-1.36237e-05
4.18046e-05
3.86387e-05
-1.11438e-05
-3.56693e-06
-6.56888e-05
-7.13436e-06
-6.60537e-05
-1.07966e-05
-6.61977e-05
-1.46412e-05
-6.64514e-05
-1.87402e-05
-6.68343e-05
-2.32285e-05
-6.73885e-05
-2.83222e-05
-6.81588e-05
-3.43142e-05
-6.92981e-05
-4.25179e-05
-7.09708e-05
-5.55201e-05
-7.214e-05
-7.35912e-05
-7.47326e-05
-0.000105194
-7.81576e-05
-0.000146926
-6.0963e-05
-0.000149928
-1.69218e-05
-0.000119575
3.09631e-05
-8.35462e-05
4.72707e-05
-5.90707e-05
5.01401e-05
-4.32628e-05
4.94722e-05
-3.29356e-05
4.67947e-05
-2.58762e-05
4.36449e-05
-2.07731e-05
4.0625e-05
-1.68992e-05
3.79306e-05
3.55837e-05
-1.38442e-05
-3.60269e-06
-6.20861e-05
-7.2681e-06
-6.23888e-05
-1.10397e-05
-6.24261e-05
-1.50144e-05
-6.24772e-05
-1.92887e-05
-6.25597e-05
-2.40131e-05
-6.26633e-05
-2.93947e-05
-6.27777e-05
-3.57823e-05
-6.29101e-05
-4.39003e-05
-6.2853e-05
-5.40735e-05
-6.1967e-05
-6.78421e-05
-6.09642e-05
-8.95399e-05
-5.64598e-05
-0.000110286
-4.02173e-05
-0.00011323
-1.39778e-05
-9.42875e-05
1.20208e-05
-7.42377e-05
2.7221e-05
-5.82027e-05
3.4105e-05
-4.56205e-05
3.68899e-05
-3.61192e-05
3.72933e-05
-2.89811e-05
3.65067e-05
-2.35451e-05
3.51888e-05
-1.93131e-05
3.36984e-05
3.22108e-05
-1.59405e-05
-3.61362e-06
-5.84726e-05
-7.28835e-06
-5.87134e-05
-1.10909e-05
-5.8623e-05
-1.50891e-05
-5.84794e-05
-1.93842e-05
-5.82646e-05
-2.40986e-05
-5.79486e-05
-2.94084e-05
-5.74677e-05
-3.55891e-05
-5.67288e-05
-4.29961e-05
-5.5446e-05
-5.16727e-05
-5.32902e-05
-6.25776e-05
-5.00594e-05
-7.56487e-05
-4.33891e-05
-8.53004e-05
-3.05656e-05
-8.60197e-05
-1.32585e-05
-7.73337e-05
3.33476e-06
-6.55069e-05
1.53943e-05
-5.43655e-05
2.29635e-05
-4.47073e-05
2.72317e-05
-3.67204e-05
2.93062e-05
-3.02497e-05
3.00358e-05
-2.50381e-05
2.99769e-05
-2.08228e-05
2.94828e-05
2.87667e-05
-1.7379e-05
-3.56505e-06
-5.49084e-05
-7.18985e-06
-5.50886e-05
-1.09315e-05
-5.48808e-05
-1.48501e-05
-5.45609e-05
-1.90261e-05
-5.40882e-05
-2.35592e-05
-5.34159e-05
-2.85634e-05
-5.24632e-05
-3.4191e-05
-5.11016e-05
-4.0539e-05
-4.90979e-05
-4.76381e-05
-4.61909e-05
-5.57425e-05
-4.19549e-05
-6.39106e-05
-3.52212e-05
-6.92354e-05
-2.52407e-05
-6.93534e-05
-1.31404e-05
-6.47022e-05
-1.31661e-06
-5.75243e-05
8.21636e-06
-4.97461e-05
1.51853e-05
-4.23763e-05
1.98617e-05
-3.58411e-05
2.27708e-05
-3.02346e-05
2.4429e-05
-2.55023e-05
2.52444e-05
-2.15315e-05
2.55118e-05
2.54317e-05
-1.81968e-05
-3.45788e-06
-5.14505e-05
-6.97911e-06
-5.15669e-05
-1.05905e-05
-5.12689e-05
-1.43507e-05
-5.08003e-05
-1.83173e-05
-5.01215e-05
-2.2553e-05
-4.91798e-05
-2.7123e-05
-4.78931e-05
-3.20863e-05
-4.61388e-05
-3.7442e-05
-4.37421e-05
-4.31426e-05
-4.04903e-05
-4.90425e-05
-3.6055e-05
-5.43263e-05
-2.99374e-05
-5.75568e-05
-2.20101e-05
-5.77003e-05
-1.29969e-05
-5.49235e-05
-4.09352e-06
-5.03125e-05
3.60534e-06
-4.48632e-05
9.736e-06
-3.93095e-05
1.43079e-05
-3.40746e-05
1.75357e-05
-2.93517e-05
1.97059e-05
-2.5196e-05
2.10886e-05
-2.15888e-05
2.19043e-05
2.23191e-05
-1.84764e-05
-3.30479e-06
-4.81459e-05
-6.66773e-06
-4.82037e-05
-1.00985e-05
-4.78383e-05
-1.36424e-05
-4.72562e-05
-1.7337e-05
-4.64274e-05
-2.12154e-05
-4.5301e-05
-2.53038e-05
-4.38047e-05
-2.96049e-05
-4.18377e-05
-3.40733e-05
-3.92735e-05
-3.86039e-05
-3.596e-05
-4.29544e-05
-3.17044e-05
-4.65678e-05
-2.6324e-05
-4.8699e-05
-1.98789e-05
-4.88718e-05
-1.28241e-05
-4.71401e-05
-5.82519e-06
-4.40577e-05
5.23077e-07
-4.01688e-05
5.84709e-06
-3.59767e-05
1.01157e-05
-3.18236e-05
1.33826e-05
-2.79119e-05
1.57942e-05
-2.43412e-05
1.75177e-05
-2.11444e-05
1.87073e-05
1.94894e-05
-1.83148e-05
-3.1184e-06
-4.50273e-05
-6.28051e-06
-4.5041e-05
-9.49377e-06
-4.46247e-05
-1.27846e-05
-4.39655e-05
-1.61734e-05
-4.30385e-05
-1.96736e-05
-4.1801e-05
-2.32842e-05
-4.01945e-05
-2.69787e-05
-3.8143e-05
-3.06918e-05
-3.55603e-05
-3.4301e-05
-3.23511e-05
-3.75848e-05
-2.84204e-05
-4.01852e-05
-2.37235e-05
-4.17009e-05
-1.83633e-05
-4.1891e-05
-1.26339e-05
-4.07781e-05
-6.93802e-06
-3.86457e-05
-1.60929e-06
-3.58239e-05
3.02531e-06
-3.26394e-05
6.9311e-06
-2.93527e-05
1.00958e-05
-2.61421e-05
1.25834e-05
-2.31161e-05
1.44915e-05
-2.03308e-05
1.59219e-05
1.69654e-05
-1.78068e-05
-2.90739e-06
-4.21199e-05
-5.84343e-06
-4.21052e-05
-8.81494e-06
-4.1653e-05
-1.18329e-05
-4.09477e-05
-1.49047e-05
-3.99664e-05
-1.80301e-05
-3.86759e-05
-2.11925e-05
-3.70321e-05
-2.43528e-05
-3.49825e-05
-2.74408e-05
-3.24724e-05
-3.03429e-05
-2.94492e-05
-3.28865e-05
-2.58766e-05
-3.48435e-05
-2.17665e-05
-3.59877e-05
-1.72192e-05
-3.61878e-05
-1.24339e-05
-3.54616e-05
-7.66422e-06
-3.39336e-05
-3.13727e-06
-3.18607e-05
9.52254e-07
-2.94239e-05
4.49417e-06
-2.68203e-05
7.49196e-06
-2.41968e-05
9.95981e-06
-2.16546e-05
1.19491e-05
-1.92564e-05
1.35238e-05
1.47454e-05
-1.70364e-05
-2.67913e-06
-3.94407e-05
-5.37603e-06
-3.94083e-05
-8.09306e-06
-3.89363e-05
-1.08312e-05
-3.82095e-05
-1.35895e-05
-3.72081e-05
-1.6358e-05
-3.59074e-05
-1.9113e-05
-3.4277e-05
-2.18121e-05
-3.22835e-05
-2.43895e-05
-2.98952e-05
-2.67502e-05
-2.70885e-05
-2.87677e-05
-2.3859e-05
-3.02948e-05
-2.02395e-05
-3.11978e-05
-1.63164e-05
-3.14018e-05
-1.223e-05
-3.09171e-05
-8.14897e-06
-2.98167e-05
-4.23784e-06
-2.82726e-05
-5.9207e-07
-2.63864e-05
2.60763e-06
-2.43169e-05
5.42225e-06
-2.2177e-05
7.81979e-06
-2.0053e-05
9.82509e-06
-1.80056e-05
1.14764e-05
1.28137e-05
-1.60738e-05
-2.44055e-06
-3.70004e-05
-4.89305e-06
-3.69559e-05
-7.35136e-06
-3.64779e-05
-9.81233e-06
-3.57485e-05
-1.22689e-05
-3.47518e-05
-1.47055e-05
-3.34708e-05
-1.70962e-05
-3.18863e-05
-1.94005e-05
-2.99794e-05
-2.15611e-05
-2.77346e-05
-2.3503e-05
-2.51466e-05
-2.51352e-05
-2.2227e-05
-2.63609e-05
-1.90141e-05
-2.70982e-05
-1.55793e-05
-2.73033e-05
-1.2025e-05
-2.69825e-05
-8.46997e-06
-2.61911e-05
-5.02963e-06
-2.49924e-05
-1.79113e-06
-2.35371e-05
1.15204e-06
-2.189e-05
3.77515e-06
-2.0146e-05
6.07582e-06
-1.83782e-05
8.05743e-06
-1.66415e-05
9.73985e-06
1.11469e-05
-1.49746e-05
-2.19814e-06
-3.48021e-05
-4.40537e-06
-3.47487e-05
-6.6078e-06
-3.42754e-05
-8.7999e-06
-3.35566e-05
-1.09706e-05
-3.25812e-05
-1.31025e-05
-3.13388e-05
-1.517e-05
-2.98191e-05
-1.71364e-05
-2.8013e-05
-1.89544e-05
-2.59165e-05
-2.05663e-05
-2.35348e-05
-2.19068e-05
-2.08868e-05
-2.29109e-05
-1.80102e-05
-2.35267e-05
-1.49637e-05
-2.37273e-05
-1.18246e-05
-2.35175e-05
-8.68006e-06
-2.29328e-05
-5.61467e-06
-2.20224e-05
-2.70179e-06
-2.08833e-05
1.28533e-08
-1.9564e-05
2.45596e-06
-1.8142e-05
4.65405e-06
-1.6675e-05
6.59054e-06
-1.52097e-05
8.2747e-06
9.71948e-06
-1.3782e-05
-1.95775e-06
-3.28445e-05
-3.92231e-06
-3.27839e-05
-5.87581e-06
-3.2322e-05
-7.81032e-06
-3.1622e-05
-9.71321e-06
-3.06781e-05
-1.15668e-05
-2.94853e-05
-1.33471e-05
-2.8039e-05
-1.50228e-05
-2.63374e-05
-1.65555e-05
-2.43837e-05
-1.79015e-05
-2.21891e-05
-1.90135e-05
-1.97752e-05
-1.98472e-05
-1.71767e-05
-2.03687e-05
-1.44423e-05
-2.05612e-05
-1.16323e-05
-2.04291e-05
-8.8125e-06
-1.99964e-05
-6.0476e-06
-1.93028e-05
-3.39533e-06
-1.83961e-05
-8.93752e-07
-1.73432e-05
1.40325e-06
-1.61856e-05
3.4967e-06
-1.49721e-05
5.37714e-06
-1.37422e-05
7.04506e-06
8.50556e-06
-1.2528e-05
-1.7231e-06
-3.11213e-05
-3.45101e-06
-3.10558e-05
-5.16456e-06
-3.06084e-05
-6.85422e-06
-2.99321e-05
-8.5072e-06
-2.90251e-05
-1.01064e-05
-2.7886e-05
-1.16305e-05
-2.65147e-05
-1.30535e-05
-2.49143e-05
-1.43448e-05
-2.30925e-05
-1.5471e-05
-2.10632e-05
-1.63978e-05
-1.88485e-05
-1.70947e-05
-1.64799e-05
-1.75389e-05
-1.39981e-05
-1.772e-05
-1.14513e-05
-1.76414e-05
-8.89119e-06
-1.73205e-05
-6.36852e-06
-1.67863e-05
-3.92935e-06
-1.60705e-05
-1.60938e-06
-1.52284e-05
5.61234e-07
-1.4287e-05
2.55553e-06
-1.3287e-05
4.37724e-06
-1.22609e-05
6.01922e-06
7.48119e-06
-1.12362e-05
-1.49646e-06
-2.96247e-05
-2.99574e-06
-2.95563e-05
-4.47929e-06
-2.91246e-05
-5.93714e-06
-2.8474e-05
-7.35686e-06
-2.76053e-05
-8.72277e-06
-2.65198e-05
-1.00166e-05
-2.52206e-05
-1.12171e-05
-2.37139e-05
-1.23e-05
-2.20098e-05
-1.32398e-05
-2.01235e-05
-1.40118e-05
-1.80765e-05
-1.45943e-05
-1.58972e-05
-1.49722e-05
-1.36203e-05
-1.51385e-05
-1.12851e-05
-1.50962e-05
-8.93339e-06
-1.48582e-05
-6.60643e-06
-1.44454e-05
-4.34212e-06
-1.38813e-05
-2.17345e-06
-1.32134e-05
-1.06591e-07
-1.24484e-05
1.79064e-06
-1.16289e-05
3.55795e-06
-1.07796e-05
5.17015e-06
6.62496e-06
-9.92317e-06
-1.27869e-06
-2.83459e-05
-2.55805e-06
-2.82766e-05
-3.82185e-06
-2.78604e-05
-5.06022e-06
-2.72353e-05
-6.26163e-06
-2.64036e-05
-7.41241e-06
-2.53686e-05
-8.49733e-06
-2.41355e-05
-9.49904e-06
-2.27123e-05
-1.03985e-05
-2.11104e-05
-1.11765e-05
-1.93454e-05
-1.18149e-05
-1.74379e-05
-1.22986e-05
-1.54134e-05
-1.2617e-05
-1.33019e-05
-1.27656e-05
-1.11364e-05
-1.27473e-05
-8.95162e-06
-1.25719e-05
-6.78183e-06
-1.22552e-05
-4.65876e-06
-1.18189e-05
-2.60983e-06
-1.12736e-05
-6.51877e-07
-1.06647e-05
1.18191e-06
-1.00015e-05
2.8949e-06
-9.30686e-06
4.47572e-06
5.91847e-06
-8.60026e-06
-1.06934e-06
-2.72764e-05
-2.13759e-06
-2.72078e-05
-3.19138e-06
-2.68062e-05
-4.22146e-06
-2.62047e-05
-5.21774e-06
-2.54069e-05
-6.16877e-06
-2.44173e-05
-7.06195e-06
-2.32424e-05
-7.88336e-06
-2.18911e-05
-8.6183e-06
-2.03755e-05
-9.25243e-06
-1.87111e-05
-9.77264e-06
-1.69176e-05
-1.01681e-05
-1.5018e-05
-1.04314e-05
-1.30385e-05
-1.05599e-05
-1.10079e-05
-1.0556e-05
-8.95553e-06
-1.04271e-05
-6.91076e-06
-1.0185e-05
-4.90091e-06
-9.84477e-06
-2.95006e-06
-9.41953e-06
-1.07703e-06
-8.93578e-06
6.98344e-07
-8.40595e-06
2.36526e-06
-7.84718e-06
3.91705e-06
5.34614e-06