/*--------------------------------*- C++ -*----------------------------------*\
| =========                 |                                                 |
| \\      /  F ield         | OpenFOAM: The Open Source CFD Toolbox           |
|  \\    /   O peration     | Version:  5.x                                   |
|   \\  /    A nd           | Web:      www.OpenFOAM.org                      |
|    \\/     M anipulation  |                                                 |
\*---------------------------------------------------------------------------*/
FoamFile
{
    version     2.0;
    format      ascii;
    class       volScalarField;
    location    "0.8";
    object      alpha.water;
}
// * * * * * * * * * * * * * * * * * * * * * * * * * * * * * * * * * * * * * //

dimensions      [0 0 0 0 0 0 0];

internalField   nonuniform List<scalar> 
2268
(
1
1
1
1
1
1
1
1
1
1
1
1
1
1
1
1
0.962132
0.872951
1
1
0.99988
0.999715
0.999646
1
1
1
1
1
1
1
1
1
1
1
1
1
1
0.999997
0.999026
0.939083
0.900215
0.986183
0.992492
0.970988
0.982953
1
1
1
1
1
1
1
1
1
1
1
1
1
1
1
1
0.999813
0.991449
0.968866
0.953766
0.953703
0.953944
0.974103
1
1
1
1
1
1
1
1
1
1
1
1
1
1
1
1
0.999999
1
1
0.998081
0.989518
0.964481
0.999979
0.99994
1
1
1
1
1
1
1
1
1
1
1
1
1
1
1
1
1
1
1
1
1
0.999982
1
1
1
1
1
1
1
1
1
1
1
1
1
1
1
1
1
1
1
1
1
1
1
1
1
1
1
1
1
1
1
1
1
1
1
1
1
1
1
1
1
1
1
1
1
1
1
1
1
1
1
1
0.987368
0.972131
1
1
1
1
1
1
1
1
1
0.999999
0.999996
0.999991
0.999989
0.999995
0.999997
1
0.947798
1
0.999998
1
1
0.998555
0.981272
0.69747
0.999037
0.94654
0.821955
0.821291
0.8286
0.912552
0.977406
1
1
0.994028
0.988914
0.923448
1
0.999887
0.999987
0.999989
0.999987
0.97778
0.87032
0.900983
0.514673
0.424898
0.502236
0.527753
0.517184
0.517371
0.643912
0.972321
0.886225
0.7018
0.936933
0.999993
0.999699
0.999978
0.999987
0.999984
0.999808
0.973216
0.570366
0.285394
0.330327
0.403057
0.45955
0.48067
0.627356
0.651992
0.627001
0.540961
0.326901
0.981403
0.993501
0.920824
0.903795
0.999978
0.999916
0.998807
0.816216
0.193671
0.228145
0.64611
0.651222
0.651321
0.651665
0.651879
0.651858
0.638786
0.337203
0.292966
1
0.94314
0.764025
0.785365
0.99991
0.999542
0.985507
0.589381
0.185076
0.302163
0.637173
0.591195
0.651222
0.651321
0.651665
0.651858
0.571979
0.725066
0.766289
1
0.973111
0.763828
0.950958
0.999542
0.998019
0.849714
0.178504
0.172401
0.478621
0.488203
0.110773
0.354381
0.632075
0.650083
0.557548
0.446081
0.553028
0.832246
1
0.995971
0.764217
0.97567
0.997757
0.989825
0.69342
0.143343
0.155743
0.449878
0.105245
0.0797264
0.0799532
0.214635
0.494115
0.0989528
0.102659
0.131756
0.350893
1
0.932005
0.765015
0.947207
0.994169
0.918641
0.268428
0.143343
0.143343
0.384227
0.0797264
0.0796289
0.0797264
0.107868
0.172512
0.0989569
0.105958
0.174044
0.14528
0.693762
0.745507
0.731616
0.731424
0.749755
0.831446
0.934743
0.990555
1
1
1
1
0.999999
0.999995
0.999991
0.999984
0.999955
0.999871
0.999769
0.999753
0.999862
0.999928
0.999992
0.210001
0.106801
0.131715
0.183528
0.277665
0.387858
0.475023
0.542244
0.631351
0.743493
0.843591
0.893666
0.90915
0.926986
0.952275
0.959561
0.934452
0.855251
0.767581
0.714279
0.720784
0.760915
0.84293
-5.39095e-06
0.000368848
0.000284329
0.000166021
0.000229219
0.00804637
0.0236168
0.0419347
0.0834801
0.162162
0.259757
0.403679
0.572848
0.62309
0.611022
0.514054
0.345384
0.197151
0.0804781
0.0322709
0.0210761
0.0411035
0.0894993
-2.13212e-06
6.89724e-05
3.71311e-05
1.52356e-05
3.05715e-06
0.00014337
0.000171114
8.22024e-07
4.7449e-06
0.0273008
0.273721
0.395549
0.381837
0.114394
0.0494273
0.0781817
0.171163
0.186908
0.0582271
0.0273016
0.0010125
0.000993427
0.0009939
-5.06336e-07
1.67778e-05
6.735e-06
1.6296e-06
5.75851e-07
3.61174e-07
1.87728e-07
2.30308e-08
2.01802e-07
1.92105e-06
1.28331e-05
6.12419e-05
0.000234023
0.000871734
0.00319314
0.0468914
0.207948
0.248189
0.253088
0.214997
0.00107389
0.0010125
0.0009939
-4.55369e-08
6.40417e-06
1.30096e-06
1.84775e-07
3.47494e-08
1.35603e-08
5.82615e-09
2.91171e-09
2.32247e-08
2.04341e-07
1.62559e-06
9.06785e-06
3.41724e-05
0.000182746
0.000653579
0.00282266
0.0541501
0.246832
0.256651
0.266015
0.10701
0.00107389
0.00105093
-4.80366e-09
9.41681e-07
1.9038e-07
2.13723e-08
2.83475e-09
9.3027e-10
5.13504e-10
1.57815e-09
3.13366e-08
4.86794e-08
2.66876e-07
2.33496e-06
5.63e-06
2.45783e-05
0.000147622
0.000613424
0.00282351
0.0671439
0.266015
0.271816
0.23991
0.00114811
0.00113751
-8.44107e-10
1.02885e-05
1.87417e-07
2.8351e-09
1.02396e-09
5.13399e-10
3.43442e-10
1.04869e-09
5.13907e-08
5.81771e-08
6.39559e-07
1.95066e-06
9.05621e-07
3.13849e-06
2.13204e-05
0.000109728
0.000689573
0.00882568
0.167334
0.280665
0.289513
0.106696
0.0011733
-8.17318e-11
1.13022e-05
3.30386e-06
2.87553e-09
4.21376e-10
3.43442e-10
3.33776e-10
2.98142e-10
4.95262e-08
1.42687e-07
8.7391e-07
8.96837e-07
4.10435e-07
4.76722e-07
2.58131e-06
1.82542e-05
0.000148398
0.00129457
0.0458524
0.288187
0.297342
0.278348
0.00179406
-2.83566e-11
1.03088e-05
8.16356e-06
1.47531e-06
2.87568e-09
3.98367e-10
2.97127e-10
2.87721e-10
2.91392e-08
1.17806e-07
4.54326e-07
2.63044e-07
3.45026e-07
1.72762e-07
3.24881e-07
2.5248e-06
2.06186e-05
0.000226253
0.0020384
0.094796
0.310014
0.32417
0.238718
-2.20292e-11
1.41942e-06
3.53988e-06
2.03105e-06
1.08873e-07
8.29502e-10
2.88713e-10
2.63671e-10
3.53142e-09
2.38161e-08
2.00562e-08
2.18686e-07
3.45222e-07
1.35252e-07
4.81412e-08
3.43133e-07
3.0569e-06
3.03797e-05
0.000343645
0.0027698
0.157047
0.333481
0.335606
-6.26364e-13
3.18492e-08
7.44969e-08
4.14987e-07
1.2964e-07
3.96874e-09
2.56904e-10
2.38235e-10
1.23835e-10
2.29208e-10
5.62992e-10
2.70501e-07
4.23098e-07
1.41e-07
1.34055e-08
4.86806e-08
4.51545e-07
5.4797e-06
2.53701e-05
0.000237584
0.00161631
0.172358
0.338135
-3.53294e-14
4.36131e-09
1.21268e-08
6.06399e-09
1.55382e-08
3.42702e-09
3.5916e-10
2.06915e-10
1.01785e-10
1.0136e-10
1.98793e-10
1.27344e-07
4.23098e-07
1.25967e-07
9.48568e-09
1.54795e-08
6.76439e-08
6.73627e-07
4.03842e-06
6.3561e-06
2.68788e-05
0.000149089
0.0809537
7.01469e-11
8.01413e-10
1.80381e-09
8.86699e-10
2.95669e-10
5.20421e-10
2.01226e-10
1.46171e-10
8.1629e-11
8.86964e-11
1.63587e-10
3.69647e-09
1.07818e-07
4.24502e-08
8.54809e-09
1.37295e-08
1.24231e-08
7.80075e-08
6.18275e-07
3.6482e-06
6.4492e-06
2.98369e-05
6.06219e-06
9.78363e-11
2.17721e-10
3.40571e-10
1.93736e-10
8.05086e-11
6.60845e-11
8.59671e-11
8.55043e-11
5.89225e-11
7.51445e-11
1.59325e-10
1.20635e-10
6.90227e-10
4.30157e-10
5.62293e-09
4.82324e-09
1.68675e-09
7.91121e-09
6.2823e-08
3.00894e-05
0.000358954
0.000275085
3.64545e-06
5.8228e-11
6.89356e-11
6.39083e-11
5.98397e-11
2.98842e-11
1.78025e-11
3.7904e-11
4.15295e-11
3.74267e-11
6.17047e-11
9.26499e-11
6.7344e-11
1.11684e-10
1.14991e-10
1.99747e-09
4.55475e-10
2.5815e-10
1.07574e-09
8.14011e-09
1.35457e-06
0.000516843
0.00123892
1.38166e-06
1.66931e-11
2.37301e-11
2.06197e-11
1.49294e-11
5.87496e-12
4.68018e-12
1.29042e-11
1.47653e-11
1.98187e-11
4.67225e-11
4.21592e-11
3.71757e-11
5.15155e-11
8.02655e-11
3.64487e-10
1.62648e-10
6.53612e-11
1.43214e-10
1.0933e-09
8.01092e-09
0.000433351
0.00135577
0.000705899
3.46866e-12
4.47949e-12
3.90612e-12
2.19653e-12
7.90182e-13
1.02804e-12
2.9416e-12
3.61694e-12
8.40072e-12
2.76121e-11
1.99342e-11
1.6043e-11
2.09236e-11
3.24451e-11
6.4442e-11
6.99188e-11
4.64996e-11
2.64088e-11
1.15473e-10
1.09916e-09
0.00012692
0.00137137
0.00231415
6.14467e-13
5.54103e-13
4.66179e-13
2.67452e-13
1.09026e-13
1.85995e-13
4.90954e-13
6.69721e-13
2.69206e-12
1.10435e-11
8.13819e-12
5.84267e-12
6.50342e-12
7.9826e-12
1.29035e-11
2.30042e-11
2.15072e-11
1.07149e-11
2.57235e-11
5.01878e-11
3.10524e-08
0.000637199
0.00338464
9.98912e-14
6.86032e-14
5.47916e-14
3.25248e-14
1.50924e-14
2.95517e-14
7.40929e-14
1.12725e-13
6.11926e-13
2.76966e-12
2.46169e-12
1.99104e-12
1.81633e-12
1.64981e-12
2.50456e-12
6.50304e-12
9.38507e-12
9.92747e-12
1.12788e-11
1.67308e-11
-1.01086e-08
1.9342e-06
0.00223198
1.54793e-14
8.37578e-15
6.3542e-15
3.85279e-15
2.02557e-15
4.4207e-15
1.11282e-14
1.91874e-14
1.03182e-13
4.59196e-13
5.49921e-13
5.74543e-13
4.99601e-13
3.35591e-13
4.83437e-13
2.31873e-12
5.58263e-12
1.34412e-11
1.2029e-11
-1.92416e-11
-1.10103e-09
3.00772e-07
3.51736e-05
2.29406e-15
9.89225e-16
7.12835e-16
4.40087e-16
2.60608e-16
6.30193e-16
1.63724e-15
3.34595e-15
1.55799e-14
6.28564e-14
9.86212e-14
1.30808e-13
1.17959e-13
6.8993e-14
9.48724e-14
9.95951e-13
4.60745e-12
2.18309e-11
1.17557e-11
5.88299e-12
-3.93169e-10
3.98087e-08
1.00563e-06
3.23955e-16
1.12824e-16
7.7105e-17
4.84473e-17
3.20898e-17
8.46941e-17
2.31262e-16
5.90864e-16
2.47868e-15
8.83757e-15
1.57421e-14
2.33962e-14
2.23492e-14
1.33205e-14
1.73665e-14
3.63935e-13
3.97149e-12
2.2485e-11
1.15764e-11
1.94148e-12
1.66376e-11
1.10645e-06
6.81766e-07
4.36169e-17
1.24662e-17
8.04244e-18
5.14235e-18
3.78142e-18
1.07113e-17
3.12652e-17
1.02901e-16
4.20764e-16
1.33573e-15
2.4193e-15
3.59076e-15
3.55627e-15
2.29582e-15
2.7208e-15
7.96213e-14
1.59728e-12
1.82778e-11
1.13444e-11
8.06519e-13
1.94148e-12
3.97015e-07
5.55887e-08
5.61502e-18
1.33712e-18
8.09261e-19
5.26363e-19
4.26744e-19
1.28099e-18
4.04102e-18
1.68419e-17
7.10106e-17
2.07665e-16
3.70888e-16
5.25834e-16
5.24345e-16
3.58673e-16
3.71624e-16
8.26413e-15
2.58229e-13
7.40207e-12
6.69397e-12
6.06887e-13
6.5067e-13
2.49704e-11
6.99781e-10
6.92661e-19
1.3938e-19
7.8542e-20
5.196e-20
4.61462e-20
1.45584e-19
4.96327e-19
2.47166e-18
1.10409e-17
3.13231e-17
5.59335e-17
7.62824e-17
7.55818e-17
5.30287e-17
4.79781e-17
4.89647e-16
1.67549e-14
9.35401e-13
1.56634e-12
5.07454e-13
2.55879e-13
2.1165e-12
4.36114e-11
8.18706e-20
1.41111e-20
7.33339e-21
4.94248e-21
4.78578e-21
1.57748e-20
5.75776e-20
3.2032e-19
1.51401e-18
4.34618e-18
7.91918e-18
1.06417e-17
1.04883e-17
7.54444e-18
6.00381e-18
3.02741e-17
6.62656e-16
3.75682e-14
1.33807e-13
1.2667e-13
4.16437e-14
2.60937e-13
3.52617e-12
9.21197e-21
1.37661e-21
6.45875e-22
4.50671e-22
4.75355e-22
1.6336e-21
6.30621e-21
3.73876e-20
1.833e-19
5.39598e-19
1.00953e-18
1.36368e-18
1.34241e-18
1.00119e-18
7.10543e-19
2.3226e-18
3.33376e-17
1.18353e-15
5.94647e-15
2.26895e-14
2.06292e-14
4.24113e-14
1.79418e-12
9.49035e-22
1.2345e-22
4.69305e-23
3.76722e-23
4.4531e-23
1.61966e-22
6.55235e-22
4.04999e-21
2.01751e-20
6.03357e-20
1.14936e-19
1.56923e-19
1.54343e-19
1.19224e-19
7.75027e-20
1.86189e-19
2.18295e-18
5.56309e-17
2.78449e-16
4.12254e-15
6.18646e-15
9.76087e-15
2.67519e-13
6.85564e-23
7.25541e-24
1.13219e-24
2.03228e-24
3.67454e-24
1.54357e-23
6.4982e-23
4.14903e-22
2.07646e-21
6.22618e-21
1.19287e-20
1.63437e-20
1.6006e-20
1.2621e-20
7.70429e-21
1.44969e-20
1.45828e-19
3.13292e-18
1.43324e-17
3.10247e-16
6.48768e-16
1.0999e-15
1.15582e-14
1.67329e-24
1.73534e-25
-1.40505e-24
3.88225e-26
1.94536e-25
1.42529e-24
6.17693e-24
4.04862e-23
2.02671e-22
6.04877e-22
1.15561e-21
1.57216e-21
1.52657e-21
1.20684e-21
7.01324e-22
1.0949e-21
9.33216e-21
1.79147e-19
7.47669e-19
6.34148e-18
2.26974e-17
5.09443e-17
3.74173e-16
-1.12478e-23
-1.80677e-24
-3.09826e-24
-5.87705e-25
0
1.1774e-25
5.6296e-25
3.77719e-24
1.88575e-23
5.58305e-23
1.05835e-22
1.41773e-22
1.36034e-22
1.0635e-22
5.90856e-23
8.01951e-23
5.80794e-22
9.93823e-21
4.00527e-20
1.09782e-19
7.3124e-19
3.81112e-18
3.19726e-17
-1.42653e-23
-1.62204e-24
-1.73645e-24
-4.87111e-25
-2.17e-26
3.79194e-27
5.02648e-26
3.38491e-25
1.67861e-24
4.91631e-24
9.21214e-24
1.20746e-23
1.14181e-23
8.74931e-24
4.64607e-24
5.66306e-24
3.53368e-23
5.34124e-22
2.08983e-21
5.18878e-21
4.70116e-20
5.41772e-19
6.18382e-18
-9.02053e-24
-8.68368e-25
-7.40077e-25
-2.39821e-25
-2.44217e-26
0
4.37454e-27
2.92179e-26
1.43568e-25
4.14675e-25
7.65258e-25
9.76057e-25
9.07288e-25
6.76971e-25
3.43007e-25
3.84003e-25
2.09474e-24
2.79595e-23
1.04871e-22
3.08428e-22
3.96998e-21
8.3111e-20
1.2339e-18
-4.48687e-24
-3.87141e-25
-2.74084e-25
-9.72831e-26
-1.28278e-26
-2.01989e-28
2.48285e-28
2.44448e-27
1.18634e-26
3.36622e-26
6.09557e-26
7.52543e-26
6.85722e-26
4.95333e-26
2.38883e-26
2.49864e-26
1.21182e-25
1.43226e-24
5.13506e-24
1.77568e-23
3.38133e-22
1.04601e-20
1.69105e-19
-1.93499e-24
-1.55234e-25
-9.22513e-26
-3.50193e-26
-5.26418e-27
-3.05253e-28
8.02983e-31
2.04574e-28
9.52715e-28
2.64329e-27
4.67872e-27
5.56148e-27
4.95205e-27
3.44293e-27
1.576e-27
1.56138e-27
6.89944e-27
7.2444e-26
2.49288e-25
1.01109e-24
2.57825e-23
9.9947e-22
1.51441e-20
-7.51552e-25
-5.75699e-26
-2.88269e-26
-1.15161e-26
-1.86659e-27
-1.5054e-28
0
1.65324e-29
7.4624e-29
2.01844e-28
3.47775e-28
3.95907e-28
3.43183e-28
2.28206e-28
9.88558e-29
9.38686e-29
3.90848e-28
3.66416e-27
1.22232e-26
5.93033e-26
1.82702e-24
8.53049e-23
1.27525e-21
-2.67966e-25
-1.99761e-26
-8.46903e-27
-3.51337e-27
-5.94462e-28
-5.55366e-29
-1.03585e-30
1.1301e-30
5.74939e-30
1.50716e-29
2.5158e-29
2.72874e-29
2.29226e-29
1.44798e-29
5.9276e-30
5.42584e-30
2.22296e-29
1.87456e-28
6.17491e-28
3.71622e-27
1.44392e-25
8.32459e-24
1.30422e-22
-8.87016e-26
-6.5219e-27
-2.35961e-27
-1.00466e-27
-1.73527e-28
-1.7379e-29
-6.63923e-31
4.96367e-32
4.41197e-31
1.10625e-30
1.77965e-30
1.83091e-30
1.48272e-30
8.83572e-31
3.41331e-31
3.03309e-31
1.27479e-30
9.77152e-30
3.26262e-29
2.54973e-28
1.39011e-26
9.21163e-25
1.36405e-23
-2.74666e-26
-2.00733e-27
-6.27338e-28
-2.71413e-28
-4.70306e-29
-4.83298e-30
-2.32863e-31
-1.05034e-50
3.35494e-32
8.02545e-32
1.23832e-31
1.20929e-31
9.34582e-32
5.22837e-32
1.87009e-32
1.63799e-32
7.38721e-32
5.21197e-31
1.81206e-30
1.89645e-29
1.4427e-27
9.50835e-26
1.15938e-24
-8.00445e-27
-5.85989e-28
-1.60019e-28
-6.97579e-29
-1.19668e-29
-1.2271e-30
-6.46915e-32
0
2.51315e-33
5.43248e-33
7.17726e-33
6.40268e-33
4.86931e-33
2.28777e-33
6.41221e-34
5.52421e-34
3.81295e-33
2.85046e-32
1.0534e-31
1.47458e-30
1.37309e-28
7.87655e-27
7.30144e-26
-2.20557e-27
-1.60002e-28
-3.91192e-29
-1.71254e-29
-2.8571e-30
-2.83604e-31
-1.48724e-32
-2.58965e-36
9.33636e-35
4.4746e-34
1.13961e-33
1.26606e-33
7.6063e-34
5.52853e-34
5.30977e-34
5.30977e-34
5.30977e-34
8.38856e-34
3.66336e-33
5.92708e-32
6.18283e-30
2.93579e-28
2.01399e-27
1
1
1
1
0.907246
0.935939
0.953764
0.973542
0.148254
0.177645
0.203857
0.248689
0.000993636
0.00106276
0.001793
0.00570744
0.00105093
0.001507
0.00321665
0.00873373
0.00113751
0.00149155
0.00276645
0.00592513
0.0011733
0.00135788
0.00190611
0.00275536
0.0013432
0.00150044
0.00161994
0.00196054
0.00150042
0.00161995
0.00184422
0.00195069
0.0106777
0.0248675
0.00557496
0.00217558
0.338135
0.32684
0.099409
0.132338
0.338539
0.338539
0.338539
0.337759
0.330866
0.337839
0.337759
0.333921
2.82136e-06
8.30381e-06
0.00214688
0.155912
1.3815e-06
1.45094e-06
1.98034e-06
2.48401e-06
1.38166e-06
1.36099e-06
1.47476e-06
1.96983e-06
1.33234e-06
1.47754e-06
6.59129e-06
5.95389e-06
1.52508e-06
1.73869e-06
2.09241e-05
8.91111e-05
0.00265216
3.64463e-05
2.24026e-05
0.000731742
0.00336886
0.00342704
0.00348217
0.00359661
0.000608104
0.00139566
0.00140632
0.00241093
2.82405e-06
3.36227e-06
9.68234e-06
2.15402e-05
1.96987e-07
1.57429e-07
1.20791e-07
6.21357e-07
1.04192e-08
8.11764e-09
6.89569e-09
2.45137e-08
6.13271e-10
3.05294e-10
1.38938e-10
4.23542e-10
4.01854e-11
2.44029e-11
1.67862e-11
2.92249e-11
4.18767e-12
5.78877e-12
9.3643e-12
1.04308e-11
3.02881e-12
3.43018e-12
3.50625e-12
3.20961e-12
5.29019e-13
6.38929e-13
6.23512e-13
5.53175e-13
2.43607e-14
3.40079e-14
3.66382e-14
3.49529e-14
8.17949e-16
1.16168e-15
1.51004e-15
1.72602e-15
7.82578e-17
1.28791e-16
2.11994e-16
2.9757e-16
1.65257e-17
2.98117e-17
5.69276e-17
8.87151e-17
3.41116e-18
6.20867e-18
1.25485e-17
2.0456e-17
4.57627e-19
7.89399e-19
1.54109e-18
2.58134e-18
3.97005e-20
6.38673e-20
1.14673e-19
2.01636e-19
3.29316e-21
5.06921e-21
9.55299e-21
1.92477e-20
3.1924e-22
4.88769e-22
1.45231e-21
3.58893e-21
3.02874e-23
5.34021e-23
3.59661e-22
8.14621e-22
2.35337e-24
6.26043e-24
7.1362e-23
1.0701e-22
1.36539e-25
6.30752e-25
5.72219e-24
4.99729e-24
3.91557e-27
2.69674e-26
1.15142e-25
1.48972e-25
0.993993
0.868555
0.831902
0.933149
0.985109
0.721973
0.128194
0.135233
0.273828
0.194985
0.0796698
0.0797264
0.0799833
0.0904561
0.1354
0.0926326
0.306625
0.676233
0.669128
0.9927
0.962516
0.930422
0.905618
0.941012
0.401148
0.127126
0.160655
0.34647
0.102104
0.0797285
0.0799833
0.0810196
0.0829244
0.0838658
0.0850176
0.233929
0.33275
0.416751
0.449884
0.561431
0.697251
0.899458
0.849824
0.189939
0.11889
0.328284
0.351932
0.289404
0.0809437
0.0902575
0.165303
0.0838691
0.0842585
0.0847242
0.0855222
0.0908645
0.544979
0.0505991
0.552591
0.871734
0.887883
0.704549
0.0770268
0.117096
0.351932
0.351932
0.351932
0.348827
0.294366
0.321312
0.207369
0.0847242
0.086023
0.160308
0.37507
1
0.0707831
0.635311
0.862999
0.873035
0.605964
0.0427336
0.0572834
0.296988
0.351932
0.335464
0.259974
0.321312
0.322663
0.322216
0.287678
0.276857
0.48249
0.664909
1
0.0211547
0.364792
0.837307
0.856131
0.591799
0.0333144
0.0298852
0.0948414
0.160561
0.0481606
0.00599375
0.138977
0.22704
0.307524
0.325598
0.316544
0.203385
0.323316
0.92195
0.00476048
0.117322
0.662047
0.841127
0.51567
0.0265524
0.0213641
0.0194133
0.000196543
0.000137128
0.000101946
6.76918e-05
7.41346e-05
0.000104572
0.00157002
0.000468785
0.00172317
0.00508216
0.288596
0.00278682
0.00719996
0.223378
0.533202
0.194827
0.0302258
0.0278754
0.0371834
0.119872
0.00016136
6.76918e-05
6.76918e-05
6.75279e-05
6.7707e-05
5.58929e-05
8.85555e-05
0.000445373
0.00460628
0
0.00217081
0.00298088
0.0459268
0.273172
0.311646
0.0314218
0.0302258
0.0314218
0.459137
0.0929631
0.0200268
6.69876e-05
6.75414e-05
5.5963e-05
5.59732e-05
5.58016e-05
6.68882e-05
0.0110472
0.169944
0.018905
0.0861384
0.445983
0.639647
0.632275
0.246614
0.0780041
0.2611
0.547946
0.223175
0.0492598
0.00979458
0.000149221
6.77283e-05
5.59732e-05
5.33838e-05
6.11996e-05
0.00556096
0.590123
0.507869
0.638209
0.639655
0.639639
0.639654
0.63547
0.557704
0.558839
0.28844
0.0454829
0.0626346
0.0671839
0.0144208
0.000222907
5.29097e-05
4.47913e-05
6.3568e-05
0.000133272
0.320593
0.319038
0.303953
0.303352
0.418872
0.576657
0.598074
0.588672
0.449314
0.0599382
0.0450366
0.0686836
0.0681228
0.0258652
0.000103138
1.00497e-05
2.79881e-05
0.000166471
0.000205434
0.00253446
0.329675
0.327977
0.317524
0.242116
0.240701
0.25332
0.242767
0.112479
0.0453656
0.0456732
0.0691148
0.049298
0.00467345
0.000351578
8.9969e-06
1.20131e-05
0.003091
0.000494352
-6.01192e-21
0.253892
0.278391
0.25988
0.279957
0.280208
0.280009
0.264649
0.141158
0.0636164
0.0690313
0.0688959
0.0226449
7.0998e-06
3.56836e-05
4.69588e-06
0.000356873
0.00395428
0.000508954
0
3.82024e-06
2.25847e-06
0.0058369
0.0378961
0.048284
0.0338507
0.0102654
0.0215208
0.0269569
0.0150389
0.00303899
5.09036e-05
3.58301e-07
3.81989e-09
1.49914e-08
0.00061591
0.00397025
0.000374644
-3.78234e-20
2.24088e-06
1.10917e-06
1.11113e-06
1.08932e-06
1.1481e-06
1.58465e-06
2.07181e-06
1.75357e-06
9.76057e-07
1.87018e-06
2.19504e-06
3.57563e-07
1.74299e-08
1.67089e-08
1.67166e-08
0.000456549
0.00393969
0.000398042
-7.56468e-20
2.64451e-06
1.11246e-06
1.11082e-06
9.43852e-07
9.69075e-06
1.09094e-05
9.05514e-06
2.13446e-06
7.85913e-07
7.8416e-07
8.16816e-08
3.09135e-08
2.70028e-08
1.75612e-08
1.67166e-08
0.000163649
0.00386192
0.000432245
8.87201e-05
7.65645e-05
7.83866e-05
7.66895e-07
4.33881e-07
8.65935e-06
1.10989e-05
1.09247e-05
3.7475e-06
8.02044e-09
1.05458e-08
4.20838e-09
7.59975e-08
8.04737e-08
1.83009e-08
1.73475e-08
1.07788e-05
0.00358985
0.000361345
0.0133555
0.00251399
0.000742678
2.4573e-07
1.65557e-07
5.27689e-09
2.12003e-06
5.17086e-06
9.25348e-07
3.22605e-09
3.06364e-09
3.73517e-09
4.98955e-08
5.6789e-08
2.41096e-08
1.83305e-08
2.08298e-08
0.000914373
8.19065e-05
0.0207442
0.00359661
0.00119293
7.54354e-07
1.07065e-06
8.31136e-10
6.77776e-10
6.3763e-10
8.94257e-10
2.77526e-09
2.78788e-09
3.14582e-09
2.72769e-09
1.25641e-07
2.01363e-07
2.08298e-08
3.19819e-08
7.53562e-07
1.10487e-05
0.00164944
0.00256126
0.000342975
9.57795e-08
9.02444e-09
9.6153e-10
4.64576e-10
5.91847e-10
6.98647e-10
1.54364e-09
2.72101e-09
1.64286e-09
1.74046e-09
2.9855e-07
3.05167e-07
3.0308e-08
1.15039e-05
1.26815e-05
6.31912e-06
0
2.56746e-07
4.10098e-08
5.30726e-09
7.59986e-10
4.26104e-10
4.40183e-10
4.40211e-10
7.22532e-10
2.67378e-09
1.94125e-09
1.50633e-09
9.33864e-08
3.05476e-07
3.06973e-07
1.22163e-08
4.97637e-05
3.84256e-05
2.22368e-05
1.12898e-06
1.97493e-08
2.13169e-09
3.93469e-10
2.4851e-10
3.76171e-10
4.39313e-10
4.40183e-10
4.40211e-10
1.12986e-09
1.39435e-09
1.43863e-09
4.49026e-08
2.86084e-07
1.31696e-07
4.19696e-09
6.89126e-05
0.000192036
0.000155826
6.40423e-06
2.37221e-08
2.51613e-10
1.08401e-10
2.24478e-10
3.97464e-10
4.73492e-10
4.70952e-10
5.30928e-10
8.43844e-10
2.12244e-09
1.58011e-09
1.61917e-09
3.17598e-08
8.99022e-09
3.59635e-09
0.000103154
0.000205561
0.00020473
1.13825e-05
9.82358e-10
3.1234e-10
1.10779e-10
2.22513e-10
4.19402e-10
4.84812e-10
5.10559e-10
7.50757e-10
1.48126e-09
1.67399e-09
1.6333e-09
1.66497e-09
1.8217e-09
2.78457e-09
3.64222e-09
0.000125495
0.000205561
0.00015716
2.51061e-06
4.67783e-11
5.42629e-11
8.7185e-11
2.39699e-10
4.2671e-10
4.4089e-10
4.84073e-10
7.48481e-10
9.43026e-10
1.74498e-09
1.72414e-09
1.8217e-09
3.35359e-09
4.12927e-09
3.59633e-09
9.78147e-05
0.000205561
2.66706e-05
-1.07311e-22
1.11791e-11
1.77408e-11
5.60803e-11
1.86617e-10
3.30146e-10
3.32332e-10
3.25997e-10
2.99634e-10
5.029e-10
3.14694e-09
3.6803e-09
3.24911e-09
1.62061e-08
1.23267e-08
4.82513e-09
2.04124e-05
7.26857e-05
3.64839e-06
1.71623e-23
3.29876e-12
8.97944e-12
4.14851e-11
1.26533e-10
2.1979e-10
1.88516e-10
6.01325e-11
6.63212e-11
8.29987e-08
5.08406e-08
4.81691e-09
6.34478e-09
1.34318e-06
4.57184e-07
4.42282e-08
6.12058e-09
6.48965e-10
1.37739e-10
3.28058e-26
6.87458e-13
4.10092e-12
2.43465e-11
6.62092e-11
1.32117e-10
4.6551e-11
3.18273e-11
7.72946e-08
2.04858e-07
9.94603e-08
6.38417e-09
1.75389e-06
1.13503e-05
8.14854e-06
4.59619e-07
3.99052e-07
1.23121e-07
5.11226e-10
6.53075e-27
1.16279e-13
2.16599e-12
1.17666e-11
3.93136e-11
7.19098e-11
1.09913e-11
1.23609e-11
1.9333e-07
2.04858e-07
1.05606e-07
9.445e-09
7.1332e-06
1.15781e-05
1.15781e-05
1.07462e-06
6.60951e-09
6.07573e-09
2.68288e-09
0
4.98407e-14
1.13904e-12
5.26333e-12
3.32794e-11
3.59482e-11
1.01416e-11
4.88489e-09
1.87645e-07
2.04858e-07
8.83497e-08
1.17422e-08
5.77331e-06
1.15781e-05
1.15531e-05
1.47441e-06
8.73857e-09
6.6013e-09
1.49024e-07
5.4398e-08
2.43533e-14
4.62918e-13
2.91368e-12
1.79186e-11
2.20201e-11
1.0161e-11
1.8149e-12
3.47172e-08
1.36718e-07
5.16845e-08
2.67073e-08
7.49436e-09
3.37056e-06
2.88289e-06
1.05342e-06
8.3454e-09
7.01251e-09
7.00159e-07
7.45056e-07
8.04974e-15
1.65555e-13
2.03755e-12
9.65402e-12
1.17491e-11
8.301e-12
1.75652e-12
5.44608e-13
5.44636e-13
4.56191e-09
6.49014e-08
7.12783e-09
4.11864e-09
3.93022e-09
4.08992e-09
8.53494e-09
3.55469e-08
5.82681e-07
9.39686e-07
1.76166e-15
5.19253e-14
7.85016e-13
3.36276e-12
4.01885e-12
3.18185e-12
1.30388e-12
5.48382e-13
5.44608e-13
2.71769e-10
2.17358e-08
7.48916e-09
5.77753e-09
1.05576e-08
4.36711e-09
3.21043e-09
1.28109e-07
3.18612e-11
0
2.46838e-16
9.57841e-15
9.94587e-14
4.7874e-13
6.19094e-13
5.23884e-13
6.8545e-13
9.04044e-13
6.87883e-13
5.25677e-13
5.33446e-13
1.10194e-08
3.33046e-08
3.90057e-08
1.88608e-08
3.12761e-09
1.28109e-07
1.38955e-09
2.78733e-13
2.10457e-17
6.86973e-16
4.81698e-15
2.73268e-14
4.27604e-14
1.61132e-13
9.20211e-13
1.27581e-12
8.88713e-13
4.88711e-13
2.8634e-09
3.72935e-08
3.92405e-08
3.92405e-08
1.62759e-08
1.38829e-09
3.83641e-08
2.1732e-09
1.17455e-10
1.80913e-18
2.77137e-17
2.65323e-16
1.02034e-15
3.45297e-15
1.7938e-13
1.03068e-12
1.2411e-12
4.39719e-13
4.45678e-13
7.28763e-09
3.57977e-08
3.64167e-08
1.28576e-08
1.40464e-13
1.13163e-09
1.01656e-12
9.36076e-13
1.83605e-10
2.35687e-19
3.59306e-18
6.14938e-17
1.6616e-16
1.39334e-15
1.61596e-13
4.79948e-13
4.69738e-13
4.84958e-14
1.93384e-12
2.59638e-09
8.22363e-09
1.71274e-09
1.28676e-18
3.04416e-16
1.1368e-09
1.8648e-10
8.26926e-13
0
3.90658e-20
7.66009e-19
1.3653e-17
2.62452e-17
6.34986e-16
2.95413e-14
5.71602e-14
2.7081e-14
-6.14334e-17
1.07851e-10
1.36271e-14
1.44135e-16
1.27466e-18
1.21006e-20
6.19026e-21
1.00061e-09
1.95868e-10
9.52767e-13
1.37311e-31
6.04401e-21
1.19189e-19
1.12752e-18
1.96145e-18
1.56117e-16
2.27339e-15
1.72057e-15
3.85757e-16
-9.21187e-15
9.97508e-11
8.41753e-12
6.15858e-16
-6.64731e-23
3.07151e-38
-2.75958e-48
2.9314e-10
4.51839e-11
1.05824e-13
-2.42015e-48
6.40321e-22
8.87765e-21
3.10295e-20
7.98249e-20
1.51589e-17
1.71839e-17
6.32468e-18
3.04259e-19
-2.00124e-15
-9.05381e-16
-1.89691e-16
-2.46621e-17
-2.39455e-18
-1.96683e-19
-1.42672e-20
1.42901e-11
2.53775e-12
4.00933e-15
0
2.47606e-23
1.64996e-22
2.07176e-22
7.68235e-22
5.34902e-20
9.21887e-21
1.5306e-22
-1.84151e-20
-3.36806e-20
-1.42612e-20
-3.57839e-21
-6.59366e-22
-9.47205e-23
-1.09606e-23
-1.04019e-24
-8.08999e-26
-5.69027e-27
-3.9993e-28
-1.23671e-29
)
;

boundaryField
{
    leftWall
    {
        type            zeroGradient;
    }
    rightWall
    {
        type            zeroGradient;
    }
    lowerWall
    {
        type            zeroGradient;
    }
    atmosphere
    {
        type            inletOutlet;
        inletValue      uniform 0;
        value           nonuniform List<scalar> 
46
(
-2.20557e-27
-1.60002e-28
-3.91192e-29
-1.71254e-29
-2.8571e-30
-2.83604e-31
-1.48724e-32
-2.58965e-36
9.33636e-35
4.4746e-34
1.13961e-33
1.26606e-33
7.6063e-34
5.52853e-34
5.30977e-34
5.30977e-34
5.30977e-34
8.38856e-34
3.66336e-33
5.92708e-32
6.18283e-30
2.93579e-28
2.01399e-27
3.91557e-27
2.69674e-26
1.15142e-25
1.48972e-25
0
0
0
0
0
0
0
0
0
0
0
0
0
0
0
0
0
0
0
)
;
    }
    defaultFaces
    {
        type            empty;
    }
}


// ************************************************************************* //
