/*--------------------------------*- C++ -*----------------------------------*\
| =========                 |                                                 |
| \\      /  F ield         | OpenFOAM: The Open Source CFD Toolbox           |
|  \\    /   O peration     | Version:  5.x                                   |
|   \\  /    A nd           | Web:      www.OpenFOAM.org                      |
|    \\/     M anipulation  |                                                 |
\*---------------------------------------------------------------------------*/
FoamFile
{
    version     2.0;
    format      ascii;
    class       surfaceScalarField;
    location    "0.8";
    object      alphaPhi10;
}
// * * * * * * * * * * * * * * * * * * * * * * * * * * * * * * * * * * * * * //

dimensions      [0 3 -1 0 0 0 0];

internalField   nonuniform List<scalar> 
4432
(
-4.2957e-06
4.2957e-06
-9.19972e-06
4.90402e-06
-1.38045e-05
4.60481e-06
-1.83059e-05
4.50133e-06
-2.1776e-05
3.47016e-06
-2.24318e-05
6.55734e-07
-2.04031e-05
-2.02866e-06
-1.76984e-05
-2.70474e-06
-1.5974e-05
-1.72433e-06
-1.54097e-05
-5.64354e-07
-1.56163e-05
2.06668e-07
-1.63215e-05
7.05142e-07
-1.73693e-05
1.04777e-06
-1.85166e-05
1.14733e-06
-1.9095e-05
5.7844e-07
-1.83657e-05
-7.2936e-07
-1.73477e-05
-8.9457e-08
-2.21255e-05
4.07418e-06
-2.69504e-05
4.48148e-06
-2.62002e-05
-7.50209e-07
-1.97716e-05
-6.40726e-06
-9.54144e-06
-1.0203e-05
-9.54483e-06
-6.60564e-06
1.09013e-05
-1.2395e-05
1.06934e-05
-1.71552e-05
9.36503e-06
-2.12231e-05
8.56919e-06
-2.36841e-05
5.9312e-06
-2.35888e-05
5.60371e-07
-2.12197e-05
-4.39774e-06
-1.81659e-05
-5.75855e-06
-1.61348e-05
-3.7554e-06
-1.53947e-05
-1.30441e-06
-1.54423e-05
2.54202e-07
-1.58683e-05
1.13115e-06
-1.64091e-05
1.58856e-06
-1.70199e-05
1.75814e-06
-1.79106e-05
1.46939e-06
-1.95828e-05
1.1195e-06
-2.07872e-05
2.74183e-06
-2.31129e-05
6.10787e-06
-2.30461e-05
3.03584e-06
-1.83653e-05
-4.99518e-06
-1.2867e-05
-1.15568e-05
-6.50075e-06
-1.66016e-05
-1.60456e-05
-6.1954e-06
1.70967e-05
-1.1393e-05
1.58909e-05
-1.5992e-05
1.39641e-05
-2.03934e-05
1.29706e-05
-2.34978e-05
9.03556e-06
-2.38473e-05
9.09822e-07
-2.17149e-05
-6.53013e-06
-1.88542e-05
-8.61925e-06
-1.68059e-05
-5.80363e-06
-1.59303e-05
-2.18e-06
-1.57964e-05
1.20251e-07
-1.57714e-05
1.10615e-06
-1.54989e-05
1.3161e-06
-1.49041e-05
1.16327e-06
-1.43569e-05
9.22182e-07
-1.45208e-05
1.30464e-06
-1.47567e-05
3.32853e-06
-1.31477e-05
4.96206e-06
-1.0332e-05
9.6964e-08
-6.92988e-06
-8.50385e-06
-4.48304e-06
-1.41943e-05
-1.76406e-06
-1.97383e-05
-1.78096e-05
-4.94983e-06
2.20466e-05
-9.48722e-06
2.04283e-05
-1.38506e-05
1.83275e-05
-1.79957e-05
1.71157e-05
-2.07717e-05
1.18115e-05
-2.13022e-05
1.44038e-06
-2.00402e-05
-7.79222e-06
-1.85328e-05
-1.01267e-05
-1.74026e-05
-6.93379e-06
-1.68005e-05
-2.78212e-06
-1.674e-05
5.98218e-08
-1.67801e-05
1.14616e-06
-1.64588e-05
9.94877e-07
-1.55005e-05
2.04907e-07
-1.39295e-05
-6.48756e-07
-1.18393e-05
-7.85567e-07
-8.76981e-06
2.59074e-07
-4.36331e-06
5.55479e-07
-3.92282e-07
-3.87167e-06
1.92921e-06
-1.10234e-05
1.89461e-06
-1.47666e-05
1.45016e-06
-1.92965e-05
-1.63605e-05
-3.30667e-06
2.53532e-05
-6.86644e-06
2.39881e-05
-1.03902e-05
2.18513e-05
-1.33954e-05
2.01209e-05
-1.50564e-05
1.34725e-05
-1.54639e-05
1.84788e-06
-1.56962e-05
-7.55987e-06
-1.65889e-05
-9.23392e-06
-1.74506e-05
-6.07217e-06
-1.77396e-05
-2.49308e-06
-1.78779e-05
1.98176e-07
-1.794e-05
1.20821e-06
-1.7643e-05
6.9791e-07
-1.6708e-05
-7.30079e-07
-1.50073e-05
-2.34948e-06
-1.22922e-05
-3.50071e-06
-8.07879e-06
-3.95429e-06
-2.71056e-06
-4.81275e-06
1.7546e-06
-8.33682e-06
3.84929e-06
-1.31181e-05
3.62753e-06
-1.45448e-05
2.23803e-06
-1.79095e-05
-1.41225e-05
-1.19311e-06
2.65463e-05
-3.2175e-06
2.60124e-05
-5.57709e-06
2.42109e-05
-7.22699e-06
2.17707e-05
-7.58822e-06
1.38337e-05
-7.90378e-06
2.16344e-06
-1.0058e-05
-5.40565e-06
-1.3762e-05
-5.52989e-06
-1.6954e-05
-2.88017e-06
-1.85437e-05
-9.03408e-07
-1.90818e-05
7.36206e-07
-1.91631e-05
1.28956e-06
-1.87585e-05
2.9335e-07
-1.77085e-05
-1.78007e-06
-1.59361e-05
-4.1219e-06
-1.32885e-05
-6.14831e-06
-9.39202e-06
-7.85078e-06
-4.53715e-06
-9.66762e-06
-3.86061e-07
-1.24879e-05
2.05073e-06
-1.55548e-05
2.50186e-06
-1.49959e-05
1.8268e-06
-1.72344e-05
-1.22957e-05
1.01436e-06
2.5532e-05
5.90988e-07
2.64358e-05
-2.46269e-07
2.50481e-05
-2.93418e-07
2.18179e-05
6.52016e-07
1.28883e-05
-2.49706e-07
3.06517e-06
-5.56481e-06
-9.04539e-08
-1.17513e-05
6.56549e-07
-1.64732e-05
1.84176e-06
-1.92229e-05
1.84632e-06
-2.03364e-05
1.84967e-06
-2.04904e-05
1.4436e-06
-1.99446e-05
-2.52472e-07
-1.86804e-05
-3.0443e-06
-1.66795e-05
-6.12281e-06
-1.38532e-05
-8.9746e-06
-9.90104e-06
-1.18029e-05
-5.14189e-06
-1.44267e-05
-8.30939e-07
-1.67988e-05
1.71028e-06
-1.80961e-05
2.63038e-06
-1.5916e-05
2.07118e-06
-1.66752e-05
-1.02245e-05
3.34143e-06
2.21905e-05
5.96472e-06
2.38125e-05
7.71545e-06
2.32974e-05
9.08921e-06
2.04441e-05
8.06032e-06
1.39172e-05
2.29463e-06
8.03706e-06
-5.67814e-06
7.30079e-06
-1.21918e-05
7.17025e-06
-1.64402e-05
6.09011e-06
-1.93448e-05
4.75091e-06
-2.11156e-05
3.62044e-06
-2.17221e-05
2.05011e-06
-2.11803e-05
-7.94278e-07
-1.95257e-05
-4.6989e-06
-1.69712e-05
-8.6773e-06
-1.36265e-05
-1.23192e-05
-9.11069e-06
-1.63186e-05
-3.75594e-06
-1.97809e-05
9.73127e-07
-2.15271e-05
3.85588e-06
-2.09784e-05
4.83904e-06
-1.68993e-05
3.52044e-06
-1.53568e-05
-6.70406e-06
-1.79961e-05
1.65329e-05
-4.30241e-05
2.5028e-05
-4.65043e-05
3.48041e-06
-2.71396e-05
-1.93648e-05
-6.81236e-07
-2.64583e-05
8.24901e-06
-9.03843e-06
1.26169e-06
6.80949e-06
-1.73723e-05
1.82806e-05
-5.90749e-05
3.85908e-05
-6.39323e-05
1.24971e-05
-3.44362e-05
-2.50151e-05
-8.09359e-06
-2.52125e-05
-6.2709e-06
-2.19838e-06
-9.76645e-06
2.0742e-06
-1.20372e-05
1.71204e-06
-1.3756e-05
1.50476e-06
-1.90296e-05
5.27355e-06
-2.52322e-05
6.18222e-06
-2.54725e-05
-2.87541e-05
4.51186e-05
-4.50263e-05
4.13002e-05
-3.93806e-05
-2.15902e-06
-1.93717e-05
-3.93741e-05
2.43369e-06
-4.82642e-05
5.09956e-06
-1.17048e-05
-1.92762e-05
3.28995e-05
-6.81471e-05
6.74229e-05
-6.46794e-05
4.28142e-05
-2.57425e-05
-1.38601e-05
2.05674e-06
-5.40708e-05
1.32791e-05
-3.23051e-05
1.7031e-05
-7.36122e-06
2.06963e-05
-2.5449e-06
2.20984e-05
-8.73521e-07
2.11481e-05
7.40396e-06
-4.63184e-06
2.8181e-05
-1.09465e-05
9.9385e-06
-2.51129e-05
-2.52646e-05
7.10658e-05
-3.52233e-05
5.12595e-05
-2.97874e-05
-7.57868e-06
-1.4351e-05
-5.48107e-05
-1.0664e-06
-6.15491e-05
-9.44164e-06
-3.33002e-06
-5.04336e-05
7.39276e-05
-8.12409e-05
0.000101451
-2.99755e-05
1.28031e-05
-1.1171e-05
-2.94089e-05
3.23974e-06
-7.43301e-05
6.33962e-06
-3.47597e-05
9.40595e-06
-9.23435e-06
1.73101e-05
-8.88444e-06
3.09791e-05
-1.1956e-05
3.85589e-05
7.98559e-07
3.58711e-05
1.34378e-05
1.62452e-05
1.01615e-05
-4.30064e-07
-1.8693e-05
9.05671e-05
-2.42558e-05
5.66341e-05
-2.07249e-05
-7.87587e-06
-1.21439e-05
-5.87621e-05
-8.3693e-06
-6.5324e-05
-3.24267e-05
2.07297e-05
-7.41706e-05
0.000115732
-3.62044e-05
7.30603e-05
-1.48692e-05
1.80155e-06
-8.25502e-06
-2.90511e-05
-3.44335e-07
-8.27126e-05
1.4449e-06
-3.65695e-05
2.45405e-06
-1.01739e-05
1.04208e-05
-1.69102e-05
2.16309e-05
-2.33221e-05
3.33008e-05
-1.06733e-05
2.6469e-05
7.13638e-06
1.35491e-05
3.52118e-05
2.75173e-05
-1.14737e-05
0.000102041
-1.30122e-05
6.08028e-05
-1.40346e-05
-7.80401e-06
-1.2075e-05
-5.92726e-05
-2.25246e-05
-5.48717e-05
-5.95867e-05
5.78119e-05
-8.57437e-05
0.000144253
-2.37966e-05
3.42079e-05
-9.93631e-06
-1.23272e-05
-4.91172e-06
-5.17382e-05
-2.4501e-06
-8.5813e-05
-4.41784e-06
-2.29982e-05
-5.98933e-06
-8.62292e-06
1.0882e-06
-2.39181e-05
1.56633e-05
-3.79561e-05
2.65276e-05
-2.16985e-05
4.20573e-05
1.92823e-06
4.02063e-05
2.91994e-05
8.52545e-05
-3.13646e-06
0.000105177
-4.05382e-06
6.51013e-05
-6.42764e-06
-6.29144e-06
-1.30326e-05
-6.09701e-05
-3.92728e-05
-2.86114e-05
-8.02504e-05
9.88684e-05
-4.67746e-05
0.000117983
-1.72239e-05
2.07553e-05
-8.91233e-06
-1.82169e-05
-7.97378e-06
-6.80931e-05
-2.41173e-06
-5.12349e-05
-3.79521e-06
-4.46759e-06
-1.09807e-05
-2.27318e-06
-8.29053e-06
-2.46144e-05
1.16747e-06
-4.71517e-05
5.96296e-06
-8.08129e-06
7.34333e-06
1.31717e-06
1.59804e-05
1.06225e-05
6.8465e-05
6.04177e-06
9.91355e-05
6.70338e-06
6.32211e-05
3.03098e-06
-3.65684e-06
-1.30109e-05
-4.54521e-05
-5.27597e-05
1.10515e-05
-8.92199e-05
0.000136526
-2.4278e-05
7.09483e-05
-1.45259e-05
8.60945e-06
-1.00697e-05
-1.85617e-05
-5.12648e-06
-8.13569e-05
-2.62351e-06
-1.14314e-05
-2.80489e-06
-4.36328e-06
-3.56834e-06
-1.64763e-06
-1.47679e-05
-1.05831e-05
-6.65766e-06
-2.24105e-05
-1.10488e-05
4.9636e-07
-1.49101e-05
-6.63843e-07
-1.47864e-05
2.14259e-07
2.40199e-06
1.05969e-05
8.85386e-05
1.30155e-05
5.15418e-05
9.19807e-06
-7.62019e-07
-1.37861e-05
-2.10602e-05
-6.08517e-05
5.82603e-05
-6.51637e-05
0.000151886
-1.48974e-05
5.72532e-05
-1.08086e-05
1.20046e-06
-9.69897e-06
-2.10988e-05
-3.15243e-06
-7.81983e-05
-4.48401e-06
-1.01802e-05
-3.75483e-06
-5.12855e-06
-3.0405e-06
-2.43903e-06
-9.64574e-06
-3.19179e-06
-1.19074e-05
1.53714e-07
-1.90376e-05
4.19164e-06
-2.36136e-05
-4.64855e-06
-1.53181e-05
-2.25327e-05
-7.21355e-06
4.037e-06
3.55372e-06
2.02722e-06
7.17841e-06
-3.53275e-06
7.71804e-06
-1.17027e-05
8.18145e-06
-2.09252e-05
7.65002e-06
-3.09873e-05
7.54358e-06
-3.74543e-05
7.2638e-06
-3.89176e-05
6.03137e-06
-3.96175e-05
6.79e-06
-4.21593e-05
7.29273e-06
-4.53014e-05
6.76252e-06
-4.63993e-05
3.14804e-06
-4.38036e-05
-3.38971e-06
-3.83902e-05
-1.01118e-05
-3.30374e-05
-1.40296e-05
-2.76106e-05
-1.77436e-05
-1.94364e-05
-2.44824e-05
-8.34973e-06
-3.0838e-05
2.69808e-06
-3.25378e-05
1.06282e-05
-2.88902e-05
1.37961e-05
-2.0071e-05
1.1562e-05
-1.31278e-05
-4.83914e-06
9.69585e-06
-8.26535e-06
-1.41955e-06
-1.00799e-05
-2.15931e-07
-1.28727e-05
-2.37674e-07
-1.84569e-05
-1.71632e-07
-2.70866e-05
-2.60749e-07
-3.46476e-05
3.04658e-07
-3.88906e-05
3.22827e-07
-4.09058e-05
-2.11217e-08
-4.23871e-05
-1.2409e-06
-4.46296e-05
-5.40779e-07
-4.6139e-05
1.10741e-06
-4.50868e-05
1.49212e-07
-4.39247e-05
-4.83303e-06
-4.55371e-05
-9.84387e-06
-5.02748e-05
-9.76259e-06
-5.48641e-05
-1.19058e-05
-5.0496e-05
-1.88755e-05
-3.4392e-05
-2.08092e-05
-1.5365e-05
-1.81829e-05
-2.27396e-06
-1.31966e-05
3.07265e-06
-7.66785e-06
5.97141e-06
-5.26455e-06
-3.48812e-06
9.83812e-06
-1.30186e-06
-1.17102e-07
-1.58439e-06
4.33913e-08
-1.8729e-06
3.12989e-08
-2.06979e-06
9.03041e-09
-2.41114e-06
-1.72581e-08
-4.53495e-06
-3.7483e-08
-7.61664e-06
-5.27097e-08
-1.25383e-05
-3.98947e-07
-2.26307e-05
-1.3806e-06
-3.31331e-05
-3.07041e-06
-4.46719e-05
-5.02703e-06
-7.43851e-05
-8.29458e-06
-9.69241e-05
-1.37237e-05
-0.000103058
-6.95478e-06
-0.000108053
-3.14705e-07
-9.31649e-05
-9.69206e-07
-5.80346e-05
-1.44387e-05
-1.9698e-05
-2.87667e-05
-3.76161e-06
-1.45467e-05
-1.85786e-07
-6.75233e-06
1.02461e-07
-4.05519e-07
1.39315e-07
-5.04262e-08
-1.44802e-08
6.44678e-07
-1.07001e-07
-9.90321e-09
-7.59812e-08
8.01115e-09
-5.06674e-08
3.90586e-09
-4.44321e-08
1.48758e-09
-6.17273e-08
1.57348e-10
-1.48809e-07
-1.74792e-10
-2.46458e-07
1.51133e-09
-6.44795e-07
-9.42703e-10
-2.02066e-06
-6.56708e-09
-2.55142e-05
-3.708e-08
-0.000110879
-1.83015e-07
-0.000104688
-6.44125e-07
-7.64363e-05
-1.4591e-06
-2.49792e-05
-8.75491e-08
-1.96238e-05
-2.19307e-08
-3.56676e-05
-2.51094e-06
-4.16217e-05
-3.07332e-05
-3.31624e-05
-3.46288e-05
-1.13163e-05
-3.82166e-05
-5.3045e-07
-1.67467e-05
5.06497e-08
-9.70384e-07
4.76395e-08
-5.27237e-08
2.52903e-08
2.15089e-09
-1.1247e-08
1.47728e-09
-5.58275e-09
1.39828e-09
-2.62889e-09
5.47332e-10
-1.42416e-09
1.50313e-10
-1.40994e-09
3.61469e-11
-1.68579e-09
1.5291e-11
-2.22482e-10
1.20979e-11
-1.17205e-09
-1.46367e-12
-7.80463e-09
-1.1565e-11
-4.55195e-08
-9.13231e-11
-2.31159e-07
-1.4625e-09
-8.84671e-07
-7.14113e-09
-2.3843e-06
-1.50336e-08
-2.65083e-06
-8.71696e-09
-3.29053e-06
2.56401e-10
-2.41006e-05
-1.77347e-06
-6.09265e-05
-2.38498e-05
-5.64818e-05
-3.87209e-05
-4.77145e-05
-4.72936e-05
-1.36143e-05
-3.76096e-05
-2.87636e-07
-1.41893e-05
-1.98646e-07
-1.31392e-07
3.04169e-08
-2.10617e-07
-5.29592e-10
2.01563e-09
-5.00358e-10
1.41579e-09
-1.71627e-10
1.10258e-10
-5.15074e-11
1.58112e-11
-2.40959e-11
2.13018e-12
-1.22529e-11
3.01226e-13
-1.32931e-12
1.16303e-13
-3.41262e-12
1.74082e-14
-1.81207e-11
-2.0842e-12
-1.65548e-10
-8.85071e-12
-2.02362e-09
-9.14145e-11
-1.07283e-08
-5.5377e-10
-3.04268e-08
-1.24329e-09
-7.21761e-08
-1.88745e-09
-1.36341e-07
1.43307e-09
-1.76654e-06
-5.89385e-07
-3.74528e-05
-5.52522e-06
-6.67126e-05
-3.99118e-05
-6.10624e-05
-5.1585e-05
-4.88409e-05
-4.91829e-05
-1.61666e-06
-1.89931e-05
-2.81986e-07
-1.45408e-06
6.8531e-09
-2.81524e-07
8.72425e-10
1.14368e-09
-4.92881e-11
2.28143e-09
-1.10564e-11
5.27534e-11
-1.62381e-12
5.39644e-12
-3.13937e-13
3.33327e-13
-8.2232e-14
-9.50885e-15
-2.71095e-14
2.06408e-14
-1.572e-13
3.66621e-14
1.04088e-12
1.55796e-12
-1.07759e-11
1.28573e-12
-1.64064e-10
-7.57841e-12
-7.76189e-10
-1.72831e-10
-3.05359e-09
-2.12337e-11
-9.15921e-09
1.11026e-10
-3.23155e-08
1.88743e-09
-6.34068e-07
-8.0673e-08
-5.22957e-06
-1.37618e-06
-5.70345e-05
-9.82102e-06
-6.61973e-05
-4.1774e-05
-6.18128e-05
-5.54843e-05
-1.57641e-05
-3.99252e-05
-3.35513e-07
-1.14462e-05
-2.41625e-08
-3.47842e-07
4.48679e-10
6.95255e-10
4.06926e-11
3.4531e-09
2.82184e-14
2.34889e-10
5.23967e-15
4.93125e-12
3.03864e-15
1.9054e-13
2.90818e-15
1.6116e-14
-9.14498e-16
1.78104e-14
-1.92188e-13
3.484e-14
1.98949e-13
2.88274e-12
2.33237e-12
6.40289e-12
-2.833e-11
4.28902e-11
-5.00998e-11
-3.13162e-11
-2.08243e-10
2.18881e-11
-5.92195e-10
5.89039e-11
-2.49482e-09
7.33211e-10
-9.92334e-08
2.10446e-09
-1.3114e-06
-2.74489e-07
-1.26702e-05
-2.40577e-06
-7.05e-05
-2.80918e-05
-7.31022e-05
-5.16569e-05
-5.64982e-05
-5.19758e-05
-1.58464e-06
-1.84069e-05
-1.26061e-06
-3.46569e-07
4.03444e-10
3.08531e-10
6.12131e-10
3.59399e-09
3.06048e-11
1.50979e-09
4.01028e-13
3.62299e-11
2.39637e-14
5.99063e-13
8.14842e-15
2.52796e-14
4.37313e-15
1.512e-14
7.07455e-15
2.66313e-14
3.50443e-13
2.6433e-12
-3.67547e-12
1.12055e-11
-1.09193e-11
3.44872e-11
-1.0055e-11
-1.14231e-11
-1.13648e-11
1.56209e-11
-8.93066e-12
1.2088e-11
4.23659e-10
6.27232e-11
-9.58106e-10
1.45173e-09
-2.90403e-07
-1.06435e-08
-2.35026e-06
-5.95233e-07
-3.93894e-05
-5.35481e-06
-7.251e-05
-4.69313e-05
-6.62874e-05
-5.37307e-05
-2.52733e-05
-4.10805e-05
-1.13349e-05
-8.11803e-07
2.79042e-10
2.9499e-11
7.39069e-10
1.08237e-09
8.05187e-11
8.09454e-10
5.69346e-12
2.48279e-10
4.49474e-13
6.93802e-12
4.10898e-14
4.64934e-13
1.32422e-14
3.57742e-14
1.01524e-14
2.11549e-14
9.51085e-15
8.80852e-13
-1.41376e-12
5.48115e-12
-1.13341e-12
1.76656e-12
-4.85545e-13
-6.26525e-13
7.25575e-13
1.1727e-11
-8.76574e-15
7.35598e-12
2.69091e-11
1.07521e-11
1.22532e-09
7.37874e-11
-1.24577e-08
1.38443e-09
-5.82553e-07
-5.64427e-08
-5.17563e-06
-1.00339e-06
-5.71905e-05
-9.84759e-06
-6.95521e-05
-3.95633e-05
-6.1185e-05
-4.8585e-05
-3.24006e-05
-1.72454e-05
2.66282e-11
2.88035e-12
2.39622e-10
3.96817e-11
2.67875e-10
3.26382e-11
8.36439e-12
1.56154e-10
5.30715e-13
1.66388e-11
7.45708e-14
8.30117e-13
2.05032e-14
8.04411e-14
1.4526e-14
2.37224e-14
1.15982e-13
2.5231e-14
1.89849e-13
1.21091e-13
5.2025e-13
1.37221e-12
2.91305e-12
1.85637e-11
1.92949e-12
3.9406e-11
1.92845e-12
7.26077e-12
7.47411e-12
2.6817e-12
3.82608e-11
1.70876e-11
1.22847e-09
8.29064e-11
-5.98899e-08
7.63532e-10
-1.00918e-06
-1.14375e-07
-1.00324e-05
-1.22612e-06
-6.379e-05
-1.18499e-05
-7.65728e-05
-3.33064e-05
-3.39507e-05
-7.27346e-05
2.79852e-12
8.23143e-14
3.03358e-11
4.98544e-12
3.81432e-11
7.02702e-12
2.60528e-11
-2.90079e-12
-1.36788e-12
6.96086e-12
-1.31115e-14
7.11885e-13
5.36745e-15
5.8149e-14
7.04321e-15
2.27422e-14
1.431e-14
1.12261e-14
8.19952e-14
2.67824e-14
1.00978e-12
4.14427e-13
2.93877e-12
1.92161e-11
4.95071e-12
4.32428e-11
5.32816e-13
1.14559e-11
1.68294e-12
1.10238e-12
1.37721e-11
2.63486e-12
5.82352e-11
1.22316e-11
2.83076e-10
-2.24353e-11
-1.14799e-07
-2.00313e-10
-1.25388e-06
-1.12659e-07
-1.23156e-05
-9.45583e-07
-6.13481e-05
-8.9064e-06
-1.94473e-05
-7.36905e-05
7.24644e-14
9.87395e-15
3.53481e-12
5.0299e-13
6.433e-12
9.32796e-13
1.50302e-12
7.8765e-15
4.64377e-13
-7.29134e-14
2.42972e-14
2.00292e-13
7.41543e-15
3.85966e-14
4.49522e-15
1.92422e-14
3.3182e-15
9.2277e-15
1.63111e-14
1.06144e-14
4.06976e-13
2.35922e-14
2.06831e-12
2.39196e-12
6.704e-12
4.35937e-11
4.14839e-14
8.55966e-12
3.316e-13
7.07003e-13
3.04489e-12
4.7246e-13
1.17266e-11
3.24137e-12
-6.06883e-11
7.99595e-12
-4.34435e-10
6.6967e-11
-1.11679e-07
-1.60271e-09
-1.03017e-06
-2.67201e-08
-9.73974e-06
-1.93332e-07
-1.10321e-06
-4.04769e-05
-2.10385e-14
2.4435e-14
2.57655e-13
8.38393e-14
5.43095e-13
1.3846e-13
2.08658e-13
4.42071e-14
3.54303e-14
7.9943e-15
1.44049e-14
1.68145e-14
5.40935e-15
1.38794e-14
3.59548e-15
1.2014e-14
2.41729e-15
7.22564e-15
3.80908e-15
8.3933e-15
6.43108e-14
1.61769e-14
6.27579e-13
6.03633e-14
1.91545e-12
2.33595e-13
1.25702e-13
1.83297e-14
1.99015e-13
6.35294e-13
8.14044e-13
5.78567e-13
2.95231e-12
6.22064e-13
1.71621e-12
6.02291e-12
-1.08282e-10
6.55877e-11
-1.13196e-09
-1.0119e-10
-2.06616e-08
-7.0691e-09
-1.8033e-07
-3.40648e-08
-1.22091e-09
-1.27968e-06
-8.79445e-16
1.40519e-14
2.35345e-14
1.82519e-14
4.77612e-14
2.02917e-14
1.64767e-14
1.72042e-14
5.35588e-15
8.98114e-15
3.05506e-15
4.16718e-15
2.84161e-15
5.90776e-15
2.56301e-15
6.41178e-15
1.79208e-15
5.0082e-15
2.73258e-15
7.087e-15
1.00977e-14
1.50942e-14
6.27877e-14
9.23915e-15
1.43805e-13
3.42304e-14
6.74512e-14
1.23502e-14
1.37895e-13
3.4756e-13
1.67367e-13
1.11884e-13
5.79825e-13
1.13795e-13
5.0602e-12
1.36798e-12
1.74482e-11
4.46743e-11
-1.26431e-08
3.45126e-09
-4.14755e-08
1.6121e-08
-2.83715e-09
-1.68403e-08
-2.18601e-09
-1.13872e-09
1.75383e-16
4.50639e-15
2.94679e-15
8.09459e-15
5.17271e-15
7.26632e-15
2.72587e-15
5.1451e-15
9.72526e-16
2.208e-15
7.62417e-16
1.05294e-15
1.26104e-15
2.4138e-15
1.27626e-15
2.69928e-15
1.14461e-15
2.93458e-15
2.28799e-15
5.70407e-15
3.15242e-15
6.39146e-15
6.2326e-15
5.80106e-15
1.97373e-14
9.55158e-15
1.24129e-14
1.31222e-14
5.56887e-14
8.46975e-14
2.21617e-14
2.46122e-14
9.73516e-14
2.15587e-14
1.07406e-12
3.4432e-13
3.29732e-11
1.2131e-11
1.04975e-09
1.66946e-09
-6.40046e-08
3.63963e-08
-4.24992e-08
9.02091e-09
-1.21561e-09
-2.39889e-10
8.13717e-17
9.98653e-16
5.01668e-16
1.7952e-15
7.40023e-16
1.5613e-15
3.85621e-16
8.71104e-16
1.64378e-16
2.96417e-16
1.60431e-16
2.41527e-16
4.22255e-16
6.67112e-16
4.82306e-16
7.74296e-16
7.21613e-16
1.37159e-15
1.42778e-15
3.96349e-15
1.29914e-15
2.86509e-15
1.58154e-15
2.64682e-15
3.67337e-15
3.99963e-15
4.16957e-15
6.18384e-15
1.40691e-14
1.48855e-14
6.14756e-15
1.20465e-14
1.55148e-14
8.4231e-15
2.93906e-13
6.06384e-14
1.04958e-11
1.88634e-12
1.25575e-09
4.23042e-10
-2.71496e-08
3.9332e-08
-1.12979e-07
4.05823e-08
5.22742e-08
-4.23443e-10
1.98258e-17
1.86647e-16
7.46502e-17
2.21479e-16
9.56673e-17
1.91423e-16
4.83167e-17
1.079e-16
2.72824e-17
4.02118e-17
3.36529e-17
4.67966e-17
1.00738e-16
1.23367e-16
1.27991e-16
1.56038e-16
3.64558e-16
4.95905e-16
8.434e-16
1.92297e-15
5.76819e-16
1.29121e-15
5.62871e-16
9.61268e-16
1.09665e-15
1.27932e-15
1.53501e-15
1.75693e-15
3.25201e-15
3.03431e-15
2.97385e-15
4.58321e-15
3.03984e-15
4.10835e-15
5.35367e-14
8.86565e-15
1.68297e-12
2.57009e-13
3.58044e-10
6.65765e-11
-4.06239e-10
1.38255e-08
-1.18856e-07
8.67266e-08
5.53927e-08
-1.78626e-10
3.70809e-18
3.14554e-17
9.58769e-18
2.74615e-17
1.11032e-17
2.25972e-17
6.00817e-18
1.3352e-17
4.17937e-18
5.45855e-18
6.31355e-18
7.76825e-18
1.86495e-17
1.90439e-17
2.66797e-17
2.66098e-17
1.30699e-16
1.30019e-16
3.44095e-16
5.78435e-16
2.32246e-16
4.53678e-16
2.13514e-16
3.30848e-16
2.99029e-16
3.32749e-16
4.0506e-16
3.63876e-16
8.71349e-16
6.04604e-16
1.14217e-15
1.29675e-15
1.17324e-15
1.52941e-15
7.11034e-15
2.36434e-15
2.32612e-13
3.05877e-14
5.81581e-11
8.69559e-12
1.13499e-08
2.53132e-09
-4.49067e-08
5.30885e-08
2.1306e-07
-1.32256e-07
6.1745e-19
4.98982e-18
1.14426e-18
3.35561e-18
1.25537e-18
2.65245e-18
7.36447e-19
1.61036e-18
5.46381e-19
7.23202e-19
1.11443e-18
1.18231e-18
3.09408e-18
2.87589e-18
4.98146e-18
4.44557e-18
3.25385e-17
2.42814e-17
9.20428e-17
1.09215e-16
7.99594e-17
1.12106e-16
7.37776e-17
1.02323e-16
7.80347e-17
8.90199e-17
8.29819e-17
7.12749e-17
1.96248e-16
1.11939e-16
4.45992e-16
3.77021e-16
6.17391e-16
7.38651e-16
1.0174e-15
1.29758e-15
2.7065e-14
3.99626e-15
7.87882e-12
8.51964e-13
2.23875e-09
3.03437e-10
5.0395e-08
4.57743e-09
7.43197e-08
4.54478e-08
9.63203e-20
7.53462e-19
1.24206e-19
3.96414e-19
1.38892e-19
3.00738e-19
8.82262e-20
1.8684e-19
7.00742e-20
9.21421e-20
1.77711e-19
1.71685e-19
4.93223e-19
4.26309e-19
9.03796e-19
7.51073e-19
6.04735e-18
3.71724e-18
1.90011e-17
1.56196e-17
2.1328e-17
2.12315e-17
2.28644e-17
2.54177e-17
2.07959e-17
2.22795e-17
1.82953e-17
1.40325e-17
4.08005e-17
2.06184e-17
2.02599e-16
1.44011e-16
4.85979e-16
5.08917e-16
1.00471e-15
1.59224e-15
2.93875e-15
1.47087e-15
7.49379e-13
1.1015e-13
2.5583e-10
4.77579e-11
4.02089e-09
7.7336e-10
5.23654e-09
5.88735e-08
1.42327e-20
1.08174e-19
1.34011e-20
4.50607e-20
1.49975e-20
3.28289e-20
1.02791e-20
2.08426e-20
8.74641e-21
1.12799e-20
2.64635e-20
2.35676e-20
7.60102e-20
6.05719e-20
1.63432e-19
1.27547e-19
9.79612e-19
5.60933e-19
3.38015e-18
2.13417e-18
4.6562e-18
3.45891e-18
5.58827e-18
4.88921e-18
5.15762e-18
4.55684e-18
3.91859e-18
2.69716e-18
8.11353e-18
3.71392e-18
1.02629e-16
5.75723e-17
4.87894e-16
4.12138e-16
1.53081e-15
2.07549e-15
1.32606e-15
1.13893e-15
9.73002e-14
1.33486e-14
3.93945e-11
8.31341e-12
7.39368e-10
6.90713e-11
-7.49188e-12
5.99667e-09
1.99866e-21
1.47732e-20
1.41463e-21
4.94435e-21
1.57411e-21
3.45062e-21
1.16103e-21
2.23745e-21
1.05601e-21
1.32509e-21
3.69413e-21
3.04312e-21
1.12345e-20
8.19879e-21
2.94755e-20
2.154e-20
1.56123e-19
8.91589e-20
5.33205e-19
3.04751e-19
8.4211e-19
5.2489e-19
1.08007e-18
7.69504e-19
1.07853e-18
7.52051e-19
7.7913e-19
4.70173e-19
1.47571e-18
5.98143e-19
4.18643e-17
1.63718e-17
2.5514e-16
3.04364e-16
1.62654e-15
1.99905e-15
1.11965e-15
1.00623e-15
1.32488e-14
1.12436e-15
7.63938e-12
6.87267e-13
4.63389e-10
5.18057e-11
-1.90935e-11
5.26779e-10
2.67572e-22
1.92492e-21
1.44888e-22
5.24898e-22
1.60173e-22
3.49481e-22
1.2682e-22
2.31251e-22
1.22818e-22
1.49319e-22
4.8442e-22
3.70605e-22
1.58232e-21
1.05898e-21
5.20363e-21
3.51367e-21
2.53266e-20
1.44864e-20
8.12823e-20
4.47642e-20
1.36472e-19
7.76317e-20
1.77898e-19
1.10363e-19
1.88997e-19
1.09478e-19
1.3845e-19
7.29384e-20
2.2742e-19
8.23191e-20
9.99228e-18
2.33989e-18
1.95376e-16
6.40607e-17
1.30602e-15
1.22013e-15
8.31308e-16
8.62509e-16
1.73237e-15
1.05514e-16
6.58574e-13
3.033e-14
5.14809e-11
1.69552e-12
-3.06438e-13
2.89006e-11
3.42388e-23
2.39972e-22
1.43632e-23
5.40012e-23
1.57711e-23
3.41223e-23
1.33724e-23
2.30204e-23
1.37211e-23
1.61409e-23
5.98568e-23
4.27662e-23
2.11126e-22
1.30323e-22
8.65359e-22
5.29132e-22
4.07729e-21
2.25879e-21
1.22084e-20
6.52596e-21
2.09065e-20
1.13025e-20
2.69651e-20
1.54198e-20
2.93428e-20
1.52008e-20
2.2122e-20
1.04139e-20
2.95959e-20
1.02239e-20
1.25746e-18
1.77166e-19
3.60942e-17
5.58535e-18
5.16811e-16
2.5062e-16
4.7834e-16
2.97782e-16
4.01791e-16
3.95675e-17
2.97597e-14
8.9991e-16
1.64203e-12
8.16829e-14
-2.50379e-14
1.36325e-12
4.19511e-24
2.86698e-23
1.37617e-24
5.38966e-24
1.50038e-24
3.21158e-24
1.3597e-24
2.20779e-24
1.46958e-24
1.67413e-24
6.98563e-24
4.6924e-24
2.65283e-23
1.52129e-23
1.30333e-22
7.12681e-23
6.19896e-22
3.19336e-22
1.77996e-21
9.03829e-22
3.07361e-21
1.58153e-21
3.89785e-21
2.09753e-21
4.23884e-21
2.04425e-21
3.17565e-21
1.41484e-21
3.57845e-21
1.21876e-21
1.06409e-19
1.18943e-20
3.26019e-18
3.03659e-19
9.55953e-17
1.43167e-17
1.19801e-16
3.15828e-17
3.65396e-17
2.34975e-17
9.23878e-16
1.27645e-17
7.99149e-14
3.43853e-15
-1.20867e-15
5.78354e-14
4.92493e-25
3.27994e-24
1.2723e-25
5.21419e-25
1.37703e-25
2.90447e-25
1.3328e-25
2.03872e-25
1.5073e-25
1.66649e-25
7.71297e-25
4.90815e-25
3.12695e-24
1.68024e-24
1.74867e-23
8.61005e-24
8.54936e-23
4.00793e-23
2.43507e-22
1.14462e-22
4.25581e-22
2.0432e-22
5.3326e-22
2.68302e-22
5.75455e-22
2.59131e-22
4.09533e-22
1.82836e-22
4.33288e-22
1.38786e-22
8.28123e-21
8.74056e-22
2.20925e-19
1.75291e-20
7.20436e-18
5.89495e-19
1.19761e-17
1.62203e-18
9.24624e-18
2.45509e-18
1.91414e-17
1.4894e-18
3.3732e-15
1.35406e-16
1.06492e-16
2.24016e-15
5.52708e-26
3.5585e-25
1.12805e-26
4.8403e-26
1.21334e-26
2.46982e-26
1.25952e-26
1.7994e-26
1.47843e-26
1.58752e-26
8.07187e-26
4.90501e-26
3.45859e-25
1.75919e-25
2.11032e-24
9.56015e-25
1.05732e-23
4.53744e-24
3.03746e-23
1.31045e-23
5.39277e-23
2.37905e-23
6.72613e-23
3.12794e-23
7.20546e-23
2.99943e-23
5.035e-23
2.17092e-23
4.96635e-23
1.48037e-23
6.2538e-22
6.4766e-23
1.46663e-20
1.10125e-21
4.25686e-19
3.08656e-20
1.04567e-18
7.79721e-20
1.84185e-18
3.83455e-19
2.04689e-18
4.92378e-19
1.44195e-16
4.39045e-18
2.27109e-17
2.80929e-16
5.83475e-27
3.46708e-26
9.28332e-28
4.06924e-27
1.00242e-27
2.169e-27
1.12044e-27
1.44916e-27
1.40337e-27
1.4235e-27
8.02797e-27
4.69478e-27
3.60245e-26
1.75357e-26
2.33553e-25
9.96163e-26
1.18627e-24
4.75888e-25
3.43355e-24
1.37598e-24
6.17025e-24
2.51353e-24
7.68644e-24
3.30443e-24
8.16091e-24
3.14001e-24
5.74636e-24
2.31489e-24
5.24785e-24
1.45467e-24
4.47196e-23
4.60172e-24
9.43429e-22
6.78717e-23
2.47127e-20
1.6816e-21
6.81734e-20
4.12055e-21
3.78256e-19
4.88544e-20
5.10465e-19
7.84494e-20
7.60181e-18
1.84574e-19
1.1435e-18
3.37998e-17
5.29514e-28
3.20828e-27
7.72901e-29
3.6502e-28
7.09096e-29
1.5956e-27
9.10813e-29
1.39748e-28
1.26692e-28
1.13381e-28
7.63518e-28
4.32291e-28
3.54914e-27
1.67132e-27
2.40601e-26
9.83723e-27
1.22806e-25
4.70317e-26
3.55581e-25
1.35114e-25
6.41483e-25
2.46087e-25
7.96924e-25
3.20931e-25
8.33965e-25
3.01019e-25
5.93821e-25
2.22672e-25
5.06901e-25
1.31414e-25
3.00736e-24
3.13786e-25
5.72121e-23
3.96233e-24
1.35554e-21
8.7807e-23
3.77309e-21
2.10072e-22
3.40042e-20
1.95955e-21
6.13075e-20
3.93349e-21
3.23858e-19
8.45863e-21
2.92858e-20
1.56325e-18
5.26203e-29
2.36108e-27
1.60706e-29
2.50637e-28
-9.55847e-30
-9.86247e-29
6.88937e-30
8.95335e-29
9.84856e-30
1.35185e-29
7.02853e-29
3.78937e-29
3.3185e-28
1.52713e-28
2.32728e-27
9.24915e-28
1.18721e-26
4.41221e-27
3.41861e-26
1.25522e-26
6.14152e-26
2.26731e-26
7.58167e-26
2.91168e-26
7.76963e-26
2.68639e-26
5.54172e-26
1.96744e-26
4.47995e-26
1.09972e-26
1.91287e-25
2.07343e-26
3.26354e-24
2.20869e-25
6.96739e-23
4.36437e-24
1.89009e-22
1.02081e-23
1.28726e-21
4.73578e-23
2.93986e-21
1.05344e-22
1.17611e-20
2.93684e-22
1.20769e-21
5.31635e-20
-2.7381e-29
-8.9465e-28
-7.83162e-30
-1.26189e-28
-1.98218e-29
-2.11084e-28
-5.02212e-30
-4.08516e-29
2.26266e-30
6.23375e-30
6.08225e-30
2.79989e-30
2.96181e-29
1.34497e-29
2.12604e-28
8.31634e-29
1.07956e-27
3.94625e-28
3.07882e-27
1.10936e-27
5.47237e-27
1.98021e-27
6.69036e-27
2.49081e-27
6.67751e-27
2.25472e-27
4.714e-27
1.62041e-27
3.64513e-27
8.59957e-28
1.15792e-26
1.33169e-27
1.76505e-25
1.19016e-26
3.37673e-24
2.07835e-25
8.83204e-24
4.80992e-25
4.38759e-23
1.63287e-24
1.21436e-22
4.3035e-24
5.83687e-22
2.30881e-23
1.58156e-22
3.42991e-21
-3.39414e-29
-1.10072e-27
-6.61143e-30
-1.10535e-28
-1.03897e-29
-1.14991e-28
-3.8912e-30
-3.28826e-29
-2.1769e-31
-1.45886e-30
5.64955e-31
4.35234e-31
2.59637e-30
1.15312e-30
1.84216e-29
7.18332e-30
9.27978e-29
3.37994e-29
2.61234e-28
9.36724e-29
4.56927e-28
1.64701e-28
5.51751e-28
2.02027e-28
5.33945e-28
1.79027e-28
3.69267e-28
1.25482e-28
2.74891e-28
6.32451e-29
6.69645e-28
8.31281e-29
9.12021e-27
6.23795e-28
1.55399e-25
9.56176e-27
3.97066e-25
2.18299e-26
1.68896e-24
6.53167e-26
6.33478e-24
2.66029e-25
5.65538e-23
3.25161e-24
3.46464e-23
5.31455e-22
-2.11442e-29
-6.74885e-28
-3.3274e-30
-5.78834e-29
-4.11659e-30
-4.77288e-29
-1.77918e-30
-1.5744e-29
-2.27414e-31
-1.59559e-30
7.5899e-32
1.31921e-31
2.18609e-31
8.9879e-32
1.51875e-30
5.98543e-31
7.56961e-30
2.78597e-30
2.09681e-29
7.59214e-30
3.59157e-29
1.3108e-29
4.27489e-29
1.5614e-29
3.99527e-29
1.35151e-29
2.68411e-29
9.19139e-30
1.932e-29
4.39705e-30
3.7077e-29
5.04264e-30
4.52773e-28
3.19527e-29
6.83908e-27
4.28208e-28
1.71765e-26
9.60926e-28
6.76326e-26
2.72935e-27
4.16719e-25
1.99863e-26
7.35638e-24
4.51953e-25
5.87668e-24
9.41747e-23
-1.03893e-29
-3.25303e-28
-1.39542e-30
-2.53069e-29
-1.40817e-30
-1.72559e-29
-6.64695e-31
-6.22163e-30
-1.09878e-31
-8.15872e-31
-2.08039e-33
-1.26768e-32
1.73884e-32
7.36801e-33
1.20508e-31
4.86261e-32
5.8746e-31
2.222e-31
1.59605e-30
5.9359e-31
2.66451e-30
1.00326e-30
3.12141e-30
1.15572e-30
2.80645e-30
9.74849e-31
1.81831e-30
6.40181e-31
1.26934e-30
2.90292e-31
1.96542e-30
2.97382e-31
2.16846e-29
1.61018e-30
2.89503e-28
1.88144e-29
7.15666e-28
4.15534e-29
2.73829e-27
1.18126e-28
2.99584e-26
1.49818e-27
8.33564e-25
4.56228e-26
5.51862e-25
1.16285e-23
-4.40816e-30
-1.35881e-28
-5.25829e-31
-9.97528e-30
-4.34161e-31
-5.68631e-30
-2.17866e-31
-2.18656e-30
-4.09557e-32
-3.26606e-31
-2.85038e-33
-1.86822e-32
2.32361e-33
1.64689e-33
9.32404e-33
3.88597e-33
4.33843e-32
1.72377e-32
1.1526e-31
4.5002e-32
1.86582e-31
7.42246e-32
2.14896e-31
8.23473e-32
1.85087e-31
6.75123e-32
1.14863e-31
4.26038e-32
7.7565e-32
1.82764e-32
9.98472e-32
1.70691e-32
1.00444e-30
8.05647e-32
1.18314e-29
8.19723e-31
2.89637e-29
1.79202e-30
1.13733e-28
5.48632e-30
2.01417e-27
1.01731e-28
7.19365e-26
3.54359e-27
3.7442e-26
9.36877e-25
-1.66623e-30
-5.11101e-29
-1.82426e-31
-3.64463e-30
-1.22812e-31
-1.74539e-30
-6.42112e-32
-7.03902e-31
-1.29592e-32
-1.13258e-31
-1.25085e-33
-9.00767e-33
2.12437e-34
1.83612e-34
6.81406e-34
2.93709e-34
3.04663e-33
1.30771e-33
7.88502e-33
3.32677e-33
1.23016e-32
5.33668e-33
1.39215e-32
5.67869e-33
1.14276e-32
4.5117e-33
6.74589e-33
2.72221e-33
4.3885e-33
1.10279e-33
4.84885e-33
9.546e-34
4.5058e-32
4.04708e-33
4.6807e-31
3.59082e-32
1.14749e-30
7.86542e-32
4.96432e-30
2.8199e-31
1.2425e-28
6.995e-30
5.36537e-27
2.9055e-28
3.15123e-27
6.79987e-26
-5.67851e-31
-1.76554e-29
-5.86445e-32
-1.24833e-30
-3.21167e-32
-5.05523e-31
-1.7186e-32
-2.10885e-31
-3.59563e-33
-3.53819e-32
-4.00306e-34
-3.2587e-33
-8.67827e-36
-5.96968e-35
5.06442e-35
1.93208e-35
2.03864e-34
9.78533e-35