/*--------------------------------*- C++ -*----------------------------------*\
| =========                 |                                                 |
| \\      /  F ield         | OpenFOAM: The Open Source CFD Toolbox           |
|  \\    /   O peration     | Version:  5.x                                   |
|   \\  /    A nd           | Web:      www.OpenFOAM.org                      |
|    \\/     M anipulation  |                                                 |
\*---------------------------------------------------------------------------*/
FoamFile
{
    version     2.0;
    format      ascii;
    class       volScalarField;
    location    "0.8";
    object      p;
}
// * * * * * * * * * * * * * * * * * * * * * * * * * * * * * * * * * * * * * //

dimensions      [1 -1 -2 0 0 0 0];

internalField   nonuniform List<scalar> 
2268
(
607.181
606.688
606.722
607.725
612.529
624.328
642.284
662.044
681.299
700.616
719.994
738.852
756.422
771.84
784.517
793.473
794.34
790.837
783.505
777.508
782.953
795.522
799.447
547.844
546.841
546.533
546.996
550.994
563.208
582.372
602.781
622.289
641.782
661.438
680.483
698.148
713.638
726.414
736.235
741.793
737.505
723.51
715.345
719.546
730.627
736.92
485.754
484.442
484.366
484.71
488.174
500.927
521.375
543.068
563.139
582.874
602.779
622.104
640.042
655.933
669.256
679.831
686.504
682.469
667.692
658.708
660.108
667.472
673.578
421.434
420.091
420.566
420.822
423.541
436.597
459.502
483.23
504.058
524.083
544.378
564.147
582.473
598.819
612.882
624.182
630.893
627.574
615.613
602.909
602.209
604.954
610.006
355.895
354.523
355.538
355.926
358.572
372.896
398.448
423.976
445.196
465.407
486.204
506.558
525.329
542.2
557.069
569.407
576.675
574.277
562.219
547.3
542.74
542.131
546.299
289.907
288.22
289.734
290.953
294.927
311.189
339.061
365.257
386.365
406.772
428.193
449.278
468.459
485.74
501.606
515.316
523.168
520.344
507.398
488.921
480.789
478.519
482.776
223.938
221.797
223.835
226.995
233.794
252.262
280.686
306.047
326.782
347.787
370.396
392.491
412.086
429.473
446.42
462.014
470.894
466.975
451.13
429.007
417.352
414.185
420.045
157.645
156.106
158.064
164.261
175.464
196.336
224.241
246.601
266.215
288.078
312.502
336.057
355.853
372.909
390.863
409.083
419.54
413.946
393.395
367.205
351.578
348.753
358.2
1061.72
978.733
950.099
1003.3
1032.86
936.169
940.947
959.844
918.316
890.674
894.724
801.228
713.547
677.774
677.188
695.182
717.587
721.161
869.007
1006.79
895.691
860.734
925.676
951.66
861.233
890.937
906.252
821.3
805.814
815.239
718.403
645.542
623.312
622.509
648.075
689.808
631.602
802.792
929.662
799.354
771.526
847.795
860.858
768.217
814.682
815.855
729.276
740.276
747.188
635.28
588.237
586.387
581.341
584.965
598.287
591.211
814.236
833.988
703.593
687.41
777.265
774.13
676.538
722.349
697.54
676.431
685.102
651.115
532.971
523.767
535.985
530.597
510.393
529.158
594.161
829.141
736.641
619.432
619.697
727.645
721.523
628.558
643.005
629.509
632.693
632.565
528.427
407.163
443.093
472.654
467.798
425.318
447.789
539.723
819.64
650.538
546.991
568.929
696.621
713.395
614.813
573.297
588.562
591.444
570.606
401.11
356.32
365.478
398.179
399.938
332.986
347.996
440.854
796.631
579.407
492.114
538.067
692.293
735.052
625.134
532.89
551.884
550.694
489.787
347.637
342.718
342.608
349.452
364.568
325.34
338.14
458.972
777.071
514.752
458.312
522.905
683.161
751.986
614.644
517.608
523.81
515.675
416.72
335.574
333.945
333.182
333.304
347.196
315.729
341.674
519.489
756.352
71.4777
68.9037
72.7142
84.6731
100.29
114.807
130.914
148.905
168.692
193.455
222.256
248.858
267.99
283.635
303.943
328.863
343.941
335.654
304.79
267.1
243.04
242.791
257.742
17.6881
10.4904
10.2022
13.0968
18.7887
26.5629
35.4914
45.4023
55.5012
74.7409
108.285
144.837
166.853
172.165
191.219
237.976
274.902
264.352
206.967
143.878
98.5121
98.2282
109.343
4.44436
2.07483
0.583516
0.032508
-0.104486
0.26385
1.35854
2.58619
4.68092
12.9532
39.6867
64.3847
71.8467
57.3795
69.1309
144.54
196.039
173.62
121.098
71.2735
43.7244
40.8621
43.1551
2.02133
0.742118
0.0101088
-0.378822
-0.574786
-0.674495
-0.663634
-0.608197
-0.471614
1.39905
16.7647
24.0353
19.306
8.11474
14.3596
46.7223
96.9067
117.584
89.4991
46.0197
38.2669
36.5585
37.3304
0.419507
-0.18128
-0.521451
-0.777431
-0.907364
-0.940107
-0.901878
-0.817762
-0.65154
-0.481102
-0.421066
-0.72601
-1.41112
-1.40919
0.420021
7.61849
33.9739
64.2888
59.0151
39.6401
37.3597
35.9702
36.3483
-0.286553
-0.695081
-0.884571
-1.0426
-1.08508
-1.06633
-1.01901
-0.94065
-0.823105
-0.758701
-0.798758
-0.89677
-1.08384
-1.31476
-1.44753
-0.798411
3.35354
22.0389
30.701
30.1841
36.4962
36.1118
36.3695
-0.63497
-0.999157
-1.12499
-1.23388
-1.22724
-1.19184
-1.14168
-1.07929
-1.00918
-0.98201
-1.0653
-1.26259
-1.5064
-1.72351
-1.95251
-2.09516
-1.54783
2.66489
11.9364
17.6291
32.2583
37.1919
36.6854
-0.876198
-1.23215
-1.34597
-1.43459
-1.37886
-1.33169
-1.28512
-1.24879
-1.2256
-1.23655
-1.31259
-1.47247
-1.68538
-1.89967
-2.1345
-2.34542
-2.28768
-1.66225
1.36366
10.3578
22.3841
36.2068
36.6793
-1.06125
-1.3819
-1.54379
-1.60103
-1.53557
-1.46579
-1.42245
-1.40901
-1.41907
-1.45863
-1.53741
-1.65944
-1.81789
-1.99607
-2.18319
-2.35084
-2.44144
-2.37596
-1.63681
3.24743
13.9497
26.5899
37.5246
-1.22504
-1.42259
-1.60637
-1.67657
-1.63003
-1.56971
-1.54488
-1.55358
-1.58503
-1.63742
-1.71736
-1.82324
-1.94961
-2.0882
-2.22642
-2.35422
-2.4508
-2.46806
-2.43048
-1.26918
4.73528
16.0014
34.0279
-1.40846
-1.45381
-1.56538
-1.65137
-1.66205
-1.65135
-1.66097
-1.69196
-1.7369
-1.79524
-1.87057
-1.96264
-2.06702
-2.17665
-2.28114
-2.37082
-2.43812
-2.45439
-2.40564
-2.49586
-1.10384
4.9064
20.0749
-1.59557
-1.5517
-1.57542
-1.65296
-1.7091
-1.74543
-1.78474
-1.83138
-1.88399
-1.94394
-2.01359
-2.09291
-2.17879
-2.26654
-2.3487
-2.41603
-2.46398
-2.4834
-2.45259
-2.43758
-2.7911
0.561979
14.7482
-1.75024
-1.69478
-1.69218
-1.7515
-1.81543
-1.86939
-1.92087
-1.97319
-2.02775
-2.08644
-2.15048
-2.21964
-2.29176
-2.36359
-2.43031
-2.48517
-2.52373
-2.5456
-2.53531
-2.51658
-2.56827
-2.76148
2.24495
-1.88789
-1.85752
-1.86386
-1.90747
-1.961
-2.01328
-2.06461
-2.11606
-2.16887
-2.22428
-2.28276
-2.34387
-2.40615
-2.46723
-2.52392
-2.57198
-2.60732
-2.62915
-2.63276
-2.63677
-2.63564
-2.60272
-2.61758
-2.0384
-2.03135
-2.04273
-2.07555
-2.11819
-2.16372
-2.21063
-2.25861
-2.308
-2.35931
-2.41257
-2.46731
-2.52247
-2.57649
-2.62723
-2.67218
-2.70844
-2.73484
-2.74645
-2.77755
-2.81154
-2.82949
-2.9284
-2.20054
-2.20365
-2.21469
-2.24086
-2.27544
-2.31444
-2.35626
-2.39999
-2.44541
-2.49254
-2.5412
-2.59094
-2.64102
-2.69047
-2.73811
-2.78263
-2.82272
-2.85879
-2.88675
-2.93904
-2.99628
-2.99336
-3.1179
-2.36215
-2.36763
-2.3789
-2.40097
-2.42973
-2.46331
-2.50032
-2.53976
-2.58116
-2.6243
-2.66891
-2.71462
-2.76096
-2.80747
-2.85371
-2.89946
-2.94469
-2.99099
-3.04
-3.10587
-3.24384
-3.28858
-3.38678
-2.51985
-2.52494
-2.53658
-2.55569
-2.58027
-2.60949
-2.64223
-2.67764
-2.71521
-2.75463
-2.79559
-2.83785
-2.88119
-2.92554
-2.97106
-3.01833
-3.06846
-3.12309
-3.19023
-3.27267
-3.44571
-3.60493
-3.8074
-2.67356
-2.67795
-2.68908
-2.70577
-2.72715
-2.75276
-2.78175
-2.81348
-2.84747
-2.88341
-2.92102
-2.96015
-3.00078
-3.04313
-3.08774
-3.13569
-3.1889
-3.24918
-3.32614
-3.42371
-3.61028
-3.8807
-4.126
-2.82331
-2.82717
-2.8373
-2.85195
-2.87068
-2.8932
-2.91889
-2.94726
-2.97791
-3.01056
-3.045
-3.08115
-3.11907
-3.15916
-3.20215
-3.2493
-3.30284
-3.36524
-3.44435
-3.55036
-3.73594
-4.05028
-4.38502
-2.96938
-2.97282
-2.98186
-2.99472
-3.01118
-3.03102
-3.05378
-3.07907
-3.10659
-3.13611
-3.16747
-3.20063
-3.2357
-3.27308
-3.3135
-3.3582
-3.40919
-3.46909
-3.543
-3.64089
-3.79315
-4.06461
-4.40741
-3.11223
-3.11529
-3.12326
-3.13453
-3.149
-3.16647
-3.1866
-3.20909
-3.23367
-3.26019
-3.28852
-3.31864
-3.35063
-3.38482
-3.4218
-3.46254
-3.50849
-3.56153
-3.62413
-3.70116
-3.80207
-3.96807
-4.19757
-3.25224
-3.25495
-3.26192
-3.27178
-3.28446
-3.29982
-3.31758
-3.3375
-3.35935
-3.383
-3.40835
-3.43537
-3.4641
-3.49475
-3.52769
-3.5635
-3.60298
-3.64701
-3.69623
-3.75136
-3.81218
-3.88756
-3.98831
-3.38976
-3.39215
-3.3982
-3.40679
-3.41786
-3.43131
-3.44693
-3.4645
-3.48381
-3.50475
-3.52721
-3.55115
-3.57656
-3.60353
-3.6322
-3.66284
-3.69573
-3.73106
-3.76869
-3.80777
-3.84666
-3.88301
-3.92213
-3.52508
-3.52716
-3.53239
-3.53984
-3.54946
-3.56119
-3.57485
-3.59026
-3.60724
-3.62564
-3.64537
-3.66634
-3.68852
-3.71187
-3.73641
-3.76216
-3.78912
-3.81715
-3.84588
-3.87437
-3.90146
-3.92456
-3.94448
-3.65844
-3.66024
-3.66474
-3.67118
-3.67949
-3.68966
-3.70156
-3.71499
-3.72981
-3.74587
-3.76305
-3.78125
-3.80037
-3.82035
-3.84108
-3.86246
-3.88435
-3.90644
-3.9283
-3.94914
-3.96804
-3.98328
-3.99425
-3.79007
-3.7916
-3.79546
-3.80101
-3.80817
-3.81694
-3.82723
-3.83886
-3.85171
-3.86562
-3.88046
-3.8961
-3.91244
-3.92935
-3.94668
-3.96426
-3.98186
-3.99915
-4.01567
-4.03076
-4.0437
-4.05342
-4.05942
-3.92016
-3.92146
-3.92478
-3.92954
-3.93567
-3.94321
-3.95205
-3.96206
-3.9731
-3.98505
-3.99777
-4.01111
-4.02494
-4.03912
-4.05348
-4.06782
-4.08188
-4.09535
-4.10783
-4.11881
-4.12779
-4.13416
-4.13767
-4.04892
-4.05002
-4.05286
-4.05694
-4.06218
-4.06862
-4.07617
-4.08472
-4.09415
-4.10433
-4.11513
-4.12641
-4.13803
-4.14982
-4.16163
-4.17325
-4.18444
-4.19493
-4.20439
-4.21248
-4.21886
-4.22318
-4.22532
-4.17654
-4.17748
-4.1799
-4.18339
-4.18784
-4.19332
-4.19973
-4.20698
-4.21497
-4.22358
-4.23268
-4.24213
-4.2518
-4.26154
-4.27118
-4.28054
-4.28941
-4.29757
-4.30478
-4.31078
-4.31537
-4.31834
-4.31967
-4.30319
-4.304
-4.30605
-4.30902
-4.31279
-4.31743
-4.32284
-4.32895
-4.33567
-4.34288
-4.35048
-4.35833
-4.36632
-4.37429
-4.3821
-4.3896
-4.3966
-4.40293
-4.40841
-4.41288
-4.41619
-4.41826
-4.41913
-4.42903
-4.42975
-4.43147
-4.434
-4.43716
-4.44106
-4.4456
-4.45071
-4.45631
-4.4623
-4.46858
-4.47505
-4.48158
-4.48805
-4.49433
-4.50028
-4.50576
-4.51065
-4.5148
-4.51811
-4.52051
-4.52196
-4.52251
-4.55422
-4.55487
-4.55629
-4.55843
-4.56106
-4.56431
-4.56809
-4.57232
-4.57695
-4.58187
-4.58702
-4.59228
-4.59756
-4.60275
-4.60774
-4.61242
-4.61667
-4.6204
-4.62351
-4.62594
-4.62765
-4.62863
-4.62895
-4.67888
-4.67946
-4.68063
-4.68243
-4.68459
-4.68728
-4.69039
-4.69386
-4.69763
-4.70163
-4.70579
-4.71002
-4.71423
-4.71834
-4.72225
-4.72587
-4.72911
-4.73191
-4.73419
-4.73592
-4.73708
-4.73769
-4.73781
-4.80313
-4.80362
-4.80458
-4.80609
-4.80784
-4.81003
-4.81255
-4.81536
-4.8184
-4.8216
-4.82491
-4.82825
-4.83155
-4.83474
-4.83774
-4.84048
-4.8429
-4.84493
-4.84654
-4.84771
-4.84842
-4.84872
-4.84865
-4.92706
-4.92745
-4.92824
-4.92948
-4.93088
-4.93264
-4.93465
-4.93687
-4.93927
-4.94179
-4.94436
-4.94695
-4.94948
-4.95189
-4.95413
-4.95615
-4.95788
-4.95929
-4.96035
-4.96105
-4.9614
-4.96143
-4.96119
-5.05075
-5.05102
-5.05168
-5.05269
-5.05377
-5.05516
-5.05672
-5.05844
-5.06029
-5.06221
-5.06416
-5.06611
-5.06798
-5.06975
-5.07136
-5.07278
-5.07395
-5.07486
-5.07548
-5.07582
-5.07588
-5.0757
-5.07532
-5.17428
-5.1744
-5.17496
-5.17576
-5.17657
-5.17764
-5.1788
-5.18009
-5.18146
-5.18288
-5.1843
-5.18571
-5.18705
-5.18828
-5.18938
-5.19031
-5.19105
-5.19157
-5.19186
-5.19193
-5.19179
-5.19147
-5.19102
-5.29768
-5.29765
-5.29813
-5.29874
-5.29932
-5.30009
-5.30092
-5.30184
-5.3028
-5.30379
-5.30478
-5.30574
-5.30664
-5.30745
-5.30814
-5.30871
-5.30911
-5.30935
-5.30942
-5.30932
-5.30907
-5.30869
-5.30825
-5.42102
-5.42083
-5.42125
-5.42167
-5.42205
-5.42257
-5.42311
-5.42371
-5.42433
-5.42497
-5.42559
-5.42619
-5.42674
-5.42721
-5.42761
-5.4279
-5.42808
-5.42815
-5.42809
-5.42791
-5.42764
-5.42729
-5.42691
-5.54423
-5.54397
-5.54434
-5.54457
-5.54477
-5.54508
-5.54536
-5.54569
-5.54603
-5.54637
-5.5467
-5.547
-5.54728
-5.54751
-5.54769
-5.5478
-5.54785
-5.54782
-5.54772
-5.54756
-5.54733
-5.54707
-5.54681
-5.66774
-5.66733
-5.66748
-5.66755
-5.66761
-5.66772
-5.66779
-5.6679
-5.66799
-5.66808
-5.66817
-5.66824
-5.6683
-5.66835
-5.66837
-5.66837
-5.66835
-5.6683
-5.66823
-5.66814
-5.66804
-5.66792
-5.66782
274.755
287.515
304.058
325.028
124.187
137.198
152.04
174.669
46.5513
46.4202
46.534
53.8349
38.4954
38.4452
37.7655
38.4679
36.8477
37.0789
37.1279
37.3347
36.5116
36.5589
36.5444
36.3031
36.8805
36.9167
36.9163
36.7746
36.9489
36.9262
36.8826
36.8278
37.3224
37.2411
37.0963
36.9792
36.7752
35.8271
36.1748
36.5514
24.2045
23.0944
30.1603
29.0435
31.4656
40.9164
49.8029
52.7615
14.1987
15.6829
17.6003
20.362
-3.03534
-3.27005
-1.85672
5.50561
-3.05024
-3.10257
-3.13769
-3.35098
-3.26905
-3.36662
-3.50157
-3.60478
-3.628
-3.76623
-3.88955
-3.96989
-4.00069
-4.13478
-4.27425
-4.37952
-4.39563
-4.5081
-4.62008
-4.76568
-4.65002
-4.81589
-5.00701
-5.21956
-4.67059
-4.81934
-4.89603
-4.91823
-4.33961
-4.39696
-4.42275
-4.4201
-4.04681
-4.07637
-4.09893
-4.1062
-3.94441
-3.95413
-3.95848
-3.95581
-3.95402
-3.95656
-3.95641
-3.95373
-3.99764
-3.99782
-3.99669
-3.99423
-4.06043
-4.06011
-4.05925
-4.05769
-4.1379
-4.13744
-4.13672
-4.13565
-4.22516
-4.22465
-4.22404
-4.22327
-4.31939
-4.31896
-4.31847
-4.31785
-4.41889
-4.41858
-4.41826
-4.41792
-4.52231
-4.52206
-4.52181
-4.52154
-4.62875
-4.62853
-4.62831
-4.62807
-4.73758
-4.73737
-4.73715
-4.73691
-4.84836
-4.84813
-4.84789
-4.84764
-4.96083
-4.96057
-4.96031
-4.96003
-5.07491
-5.07464
-5.07436
-5.07408
-5.19061
-5.19034
-5.19009
-5.18984
-5.30789
-5.30766
-5.30745
-5.30726
-5.42663
-5.42646
-5.42631
-5.4262
-5.54662
-5.54651
-5.54642
-5.54636
-5.66776
-5.66772
-5.66769
-5.66769
409.152
409.214
489.378
633.292
719.306
541.524
496.538
492.803
463.24
354.396
322.722
318.507
314.728
310.858
313.146
282.278
275.176
456.677
683.289
230.738
284.44
354.555
451.015
522.961
420.016
427.046
414.865
375.911
319.941
299.793
295.724
293.192
288.183
286.32
269.099
258.038
335.561
521.068
83.5453
159.293
196.984
252.709
338.489
308.933
312.813
303.467
279.787
269.445
265.781
267.743
272.391
276.22
274.183
264.312
261.458
289.996
443.026
44.2474
71.2381
87.1921
127.448
202.907
167.381
141.58
149.853
167.407
175.158
191.61
205.102
218.708
248.159
260.811
265.78
265.185
264.641
346.095
39.6297
57.0096
61.8477
83.5883
99.286
47.7827
19.9758
31.3795
61.718
52.2266
44.2283
80.0993
103.57
150.94
206.888
238.3
259.012
256.549
221.619
35.8909
39.4565
47.677
54.3541
31.4357
-7.29999
-19.3473
-7.12635
8.48893
8.15907
7.21651
12.9598
16.4942
19.0868
25.8917
55.4719
113.329
179.93
190.646
36.3701
37.6192
34.9392
21.6813
-5.04602
-17.3695
-27.461
-13.4631
2.18739
5.15844
6.00725
5.274
3.49014
0.500328
-0.538759
6.24055
27.1209
76.3405
184.648
36.5698
35.5314
32.6185
14.0885
5.17964
-2.30759
-25.7153
-23.2178
-3.56356
4.09731
5.51417
4.54169
2.39058
-0.616294
-2.66846
-2.01535
4.53205
31.1125
104.776
36.5832
35.6493
34.6653
29.3688
26.8458
18.0122
-8.8384
-16.5366
-16.1365
-1.93919
3.89718
3.34898
1.202
-1.72313
-4.00834
-4.44993
-2.89677
4.59002
47.7724
35.652
27.8228
23.3032
38.2303
59.9584
36.2175
12.3781
-8.96651
-19.7416
-17.4207
-1.40476
1.51641
-0.10092
-2.13389
-3.26444
-3.64123
-3.21146
-3.01311
23.6381
19.5204
27.988
43.8664
75.1146
104.245
86.9373
39.3849
-1.55806
-36.9793
-28.605
-8.91019
-2.04546
-2.07197
-2.15595
-1.82238
-1.78952
-1.74269
-2.59244
3.01124
56.7548
72.5025
89.4525
109.383
129.869
123.039
82.6291
5.47675
-24.6921
-23.7129
-9.58683
-2.21298
-3.05921
-2.07715
-1.12781
-0.924487
-1.00297
-1.83082
-1.10176
26.1197
43.3445
68.0576
90.44
99.7546
97.988
68.6204
19.5864
-4.52336
-10.8066
-7.33167
-3.68647
-3.13697
-2.01896
-1.20095
-1.05056
-1.01016
-1.61088
-1.60118
12.5897
15.2215
18.9331
25.4917
30.2818
30.6422
22.2967
10.7981
0.326798
-3.35066
-2.55919
-3.10494
-2.95629
-2.25953
-1.8043
-1.56392
-1.50134
-1.80045
-1.82511
-3.52999
-3.12417
-2.36015
-0.364196
0.659349
-0.151124
-1.49482
-1.33275
-1.65714
-3.03377
-3.87181
-3.60487
-3.00819
-2.51346
-2.31279
-2.28216
-2.05688
-2.0135
-2.05035
-3.61804
-3.33168
-3.03945
-2.8467
-2.7015
-2.67645
-2.71153
-2.8848
-3.19019
-3.69291
-3.94108
-3.58806
-3.12614
-2.80785
-2.67926
-2.85044
-2.55307
-2.27096
-2.23495
-3.96028
-3.6188
-3.25096
-2.99423
-2.85611
-2.83751
-2.8944
-3.06107
-3.34921
-3.73503
-3.97165
-3.77031
-3.37641
-3.11014
-2.99444
-3.16222
-3.07603
-2.74954
-2.32981
-4.39618
-3.97248
-3.47254
-3.13595
-2.95165
-2.89051
-2.91647
-3.05871
-3.40238
-3.89
-4.17185
-4.02959
-3.63835
-3.35686
-3.2444
-3.36139
-3.52335
-3.59066
-2.81064
-4.90865
-4.295
-3.64777
-3.24214
-3.02244
-2.92947
-2.92993
-3.07586
-3.43378
-3.92202
-4.2273
-4.11802
-3.77998
-3.52359
-3.42024
-3.48715
-3.71658
-3.83869
-3.06365
-5.35403
-4.45195
-3.74615
-3.33737
-3.13401
-3.05155
-3.04654
-3.15796
-3.45142
-3.83846
-4.08183
-4.02923
-3.79796
-3.61203
-3.53096
-3.55734
-3.67231
-3.66983
-3.46517
-4.8073
-4.28236
-3.76724
-3.43001
-3.26783
-3.21075
-3.22104
-3.30455
-3.47479
-3.70701
-3.87234
-3.87542
-3.76521
-3.65772
-3.59555
-3.57717
-3.5997
-3.55853
-3.47226
-4.37064
-4.08425
-3.75619
-3.52272
-3.41003
-3.37234
-3.38089
-3.43196
-3.52728
-3.65526
-3.76231
-3.79487
-3.75621
-3.69451
-3.63918
-3.58858
-3.54592
-3.4759
-3.40647
-4.08594
-3.94807
-3.75648
-3.6162
-3.54539
-3.51996
-3.52426
-3.55423
-3.60826
-3.68096
-3.74995
-3.78401
-3.77181
-3.73191
-3.68025
-3.61096
-3.52093
-3.42097
-3.35508
-3.94363
-3.88618
-3.79525
-3.71692
-3.6705
-3.6507
-3.64993
-3.66495
-3.69457
-3.73636
-3.77953
-3.80681
-3.80557
-3.77959
-3.73376
-3.6565
-3.54147
-3.4229
-3.35327
-3.94486
-3.91318
-3.86338
-3.81542
-3.78332
-3.76716
-3.76288
-3.76803
-3.78223
-3.80553
-3.83311
-3.8554
-3.86011
-3.84404
-3.80628
-3.72766
-3.60084
-3.48181
-3.41625
-3.98731
-3.96738
-3.93866
-3.90963
-3.88786
-3.87465
-3.86816
-3.867
-3.87204
-3.8852
-3.90407
-3.92342
-3.93183
-3.92436
-3.89685
-3.82077
-3.69318
-3.5819
-3.53087
-4.0532
-4.04038
-4.02273
-4.00435
-3.98907
-3.97802
-3.97035
-3.9655
-3.96545
-3.97311
-3.98681
-4.00437
-4.01508
-4.01574
-3.99797
-3.92616
-3.81098
-3.71527
-3.67634
-4.13261
-4.12406
-4.11268
-4.10067
-4.08983
-4.08078
-4.07304
-4.06673
-4.06448
-4.06899
-4.07868
-4.09349
-4.10379
-4.10973
-4.09826
-4.03134
-3.93527
-3.8675
-3.83437
-4.22116
-4.21546
-4.20795
-4.19993
-4.1923
-4.18531
-4.1787
-4.17294
-4.17036
-4.17261
-4.17817
-4.18799
-4.194
-4.1987
-4.19026
-4.12973
-4.06364
-4.0188
-3.99126
-4.31615
-4.31252
-4.30752
-4.3022
-4.29711
-4.29232
-4.28777
-4.28397
-4.28213
-4.28266
-4.28434
-4.28815
-4.2883
-4.28695
-4.27369
-4.23644
-4.19684
-4.16472
-4.14214
-4.41711
-4.41408
-4.41058
-4.40709
-4.40391
-4.40105
-4.39861
-4.39695
-4.39612
-4.3957
-4.39494
-4.39448
-4.3911
-4.38582
-4.37438
-4.35133
-4.3272
-4.30402
-4.28636
-4.52089
-4.51878
-4.51631
-4.51397
-4.51194
-4.51023
-4.50901
-4.50847
-4.50826
-4.50779
-4.50655
-4.50482
-4.50127
-4.49608
-4.48678
-4.4719
-4.45429
-4.43807
-4.4254
-4.62751
-4.62596
-4.62413
-4.62241
-4.62088
-4.6195
-4.61844
-4.61792
-4.61777
-4.61775
-4.61749
-4.61663
-4.61423
-4.61012
-4.60282
-4.59203
-4.57984
-4.56933
-4.5611
-4.73638
-4.73513
-4.73368
-4.73229
-4.73096
-4.72961
-4.7284
-4.72764
-4.72745
-4.72799
-4.72922
-4.73012
-4.72907
-4.7261
-4.72055
-4.71335
-4.70578
-4.69933
-4.69473
-4.84715
-4.84602
-4.8448
-4.84366
-4.84257
-4.84146
-4.84055
-4.84011
-4.84027
-4.84148
-4.84399
-4.84644
-4.84668
-4.84513
-4.84145
-4.83704
-4.83257
-4.82876
-4.82676
-4.9595
-4.95855
-4.95759
-4.9568
-4.95616
-4.95567
-4.95558
-4.95603
-4.95698
-4.95898
-4.96239
-4.96572
-4.967
-4.96684
-4.96485
-4.9625
-4.96011
-4.95804
-4.95757
-5.07359
-5.07286
-5.07227
-5.07199
-5.07203
-5.07238
-5.07334
-5.07485
-5.0767
-5.07952
-5.08355
-5.08735
-5.08947
-5.09051
-5.09004
-5.08939
-5.08846
-5.08762
-5.08782
-5.18945
-5.18903
-5.18892
-5.18925
-5.19006
-5.1913
-5.19326
-5.19571
-5.19849
-5.20214
-5.20668
-5.21085
-5.2138
-5.21587
-5.21677
-5.21747
-5.2176
-5.21775
-5.21806
-5.30701
-5.30696
-5.30735
-5.3083
-5.30984
-5.31193
-5.31474
-5.31806
-5.32179
-5.32627
-5.33132
-5.33593
-5.33966
-5.34259
-5.34462
-5.34631
-5.34723
-5.34808
-5.34842
-5.42608
-5.42636
-5.42721
-5.42873
-5.43096
-5.43384
-5.43746
-5.44162
-5.44629
-5.45156
-5.45711
-5.46224
-5.46665
-5.47031
-5.47321
-5.47561
-5.47718
-5.47847
-5.47891
-5.54636
-5.54689
-5.54815
-5.55023
-5.55313
-5.55681
-5.56127
-5.56636
-5.57199
-5.57802
-5.58409
-5.58973
-5.59476
-5.59911
-5.6028
-5.60586
-5.60806
-5.6097
-5.61023
-5.66774
-5.66841
-5.67005
-5.67268
-5.67629
-5.68087
-5.68632
-5.69248
-5.6992
-5.70612
-5.7128
-5.71893
-5.72457
-5.72966
-5.73421
-5.73815
-5.74104
-5.74319
-5.74346
)
;

boundaryField
{
    leftWall
    {
        type            calculated;
        value           nonuniform List<scalar> 
50
(
607.181
547.844
485.754
421.434
355.895
289.907
223.938
157.645
71.4777
17.6881
4.44436
2.02133
0.419507
-0.286553
-0.63497
-0.876198
-1.06125
-1.22504
-1.40846
-1.59557
-1.75024
-1.88789
-2.0384
-2.20054
-2.36215
-2.51985
-2.67356
-2.82331
-2.96938
-3.11223
-3.25224
-3.38976
-3.52508
-3.65844
-3.79007
-3.92016
-4.04892
-4.17654
-4.30319
-4.42903
-4.55422
-4.67888
-4.80313
-4.92706
-5.05075
-5.17428
-5.29768
-5.42102
-5.54423
-5.66774
)
;
    }
    rightWall
    {
        type            calculated;
        value           nonuniform List<scalar> 
50
(
869.007
802.792
814.236
829.141
819.64
796.631
777.071
756.352
683.289
521.068
443.026
346.095
221.619
190.646
184.648
104.776
47.7724
23.6381
3.01124
-1.10176
-1.60118
-1.82511
-2.05035
-2.23495
-2.32981
-2.81064
-3.06365
-3.46517
-3.47226
-3.40647
-3.35508
-3.35327
-3.41625
-3.53087
-3.67634
-3.83437
-3.99126
-4.14214
-4.28636
-4.4254
-4.5611
-4.69473
-4.82676
-4.95757
-5.08782
-5.21806
-5.34842
-5.47891
-5.61023
-5.74346
)
;
    }
    lowerWall
    {
        type            calculated;
        value           nonuniform List<scalar> 
62
(
636.611
636.117
636.151
637.155
641.958
653.757
671.713
691.473
710.728
730.046
749.424
768.282
785.851
801.269
813.947
822.902
822.656
816.531
812.934
806.937
812.378
824.943
828.866
799.447
736.92
673.578
610.006
546.299
482.776
420.045
358.2
337.352
350.112
366.656
387.626
1061.72
1006.79
929.662
833.988
736.641
650.538
579.407
514.752
1089.61
1008.16
979.529
1032.73
1062.29
965.556
969.826
980.379
947.717
918.531
918.919
825.404
737.938
704.632
705.953
724.611
747.016
750.415
898.11
)
;
    }
    atmosphere
    {
        type            calculated;
        value           nonuniform List<scalar> 
46
(
-5.72904
-5.72904
-5.72904
-5.72904
-5.72904
-5.72904
-5.72904
-5.72904
-5.72904
-5.72904
-5.72904
-5.72904
-5.72904
-5.72904
-5.72904
-5.72904
-5.72904
-5.72904
-5.72904
-5.72904
-5.72904
-5.72904
-5.72904
-5.72904
-5.72904
-5.72904
-5.72904
-5.72905
-5.72971
-5.73148
-5.73442
-5.73837
-5.74349
-5.74947
-5.75624
-5.76365
-5.77118
-5.77822
-5.78457
-5.79056
-5.79609
-5.80121
-5.80585
-5.80912
-5.81189
-5.81151
)
;
    }
    defaultFaces
    {
        type            empty;
    }
}


// ************************************************************************* //
