/*--------------------------------*- C++ -*----------------------------------*\
| =========                 |                                                 |
| \\      /  F ield         | OpenFOAM: The Open Source CFD Toolbox           |
|  \\    /   O peration     | Version:  5.x                                   |
|   \\  /    A nd           | Web:      www.OpenFOAM.org                      |
|    \\/     M anipulation  |                                                 |
\*---------------------------------------------------------------------------*/
FoamFile
{
    version     2.0;
    format      ascii;
    class       volScalarField;
    location    "0.8";
    object      p_rgh;
}
// * * * * * * * * * * * * * * * * * * * * * * * * * * * * * * * * * * * * * //

dimensions      [1 -1 -2 0 0 0 0];

internalField   nonuniform List<scalar> 
2268
(
636.611
636.117
636.151
637.155
641.958
653.757
671.713
691.473
710.728
730.046
749.424
768.282
785.851
801.269
813.947
822.902
822.656
816.531
812.934
806.937
812.378
824.943
828.866
636.132
635.129
634.821
635.284
639.283
651.496
670.66
691.069
710.577
730.071
749.726
768.771
786.436
801.926
814.702
824.437
824.708
816.992
810.579
802.971
805.275
817.412
825.208
632.901
631.589
631.513
631.856
635.321
648.074
668.522
690.215
710.286
730.021
749.926
769.251
787.189
803.08
816.403
826.951
832.393
825.039
808.042
799.049
800.485
810.812
820.725
627.44
626.097
626.572
626.827
629.546
642.602
665.507
689.236
710.063
730.088
750.384
770.153
788.479
804.825
818.887
830.188
836.899
833.579
821.224
806.758
800.905
810.955
815.999
620.759
619.388
620.402
620.791
623.436
637.761
663.312
688.84
710.06
730.272
751.069
771.422
790.193
807.065
821.933
834.271
841.539
839.141
827.084
812.164
807.604
806.991
811.164
613.63
611.943
613.457
614.676
618.65
634.912
662.784
688.98
710.088
730.495
751.916
773.001
792.182
809.463
825.329
839.039
846.89
844.067
831.121
812.644
804.512
802.242
806.499
606.519
604.379
606.417
609.576
616.375
634.844
663.268
688.629
709.364
730.369
752.978
775.072
794.667
812.055
829.002
844.596
853.476
849.556
833.712
811.588
799.934
796.767
802.627
599.086
597.546
599.504
605.702
616.905
632.205
653.391
688.041
707.655
729.518
753.943
777.498
797.293
814.349
832.303
850.523
860.98
855.384
834.832
808.641
793.016
790.192
799.641
1089.61
1008.16
979.529
1032.73
1062.29
965.556
969.826
980.379
947.717
918.531
918.919
825.404
737.938
704.632
705.953
724.611
747.016
750.415
898.11
1088.33
983.979
949.012
1013.96
1039.95
949.52
977.265
983.102
900.855
851.296
852.803
762.789
692.178
669.016
668.229
704.957
775.655
709.855
864.779
1067.54
946.5
918.629
994.939
1008
915.361
961.8
959.064
813.266
782.376
795.893
694.677
655.938
657.193
673.709
680.955
690.604
670.88
862.438
1036.17
908.261
877.122
963.472
980.131
882.526
928.109
865.723
716.494
732.26
784.291
667.198
658.015
670.304
664.96
644.751
660.826
663.763
889.639
1001.51
869.251
822.122
935.717
986.363
893.301
904.034
785.724
681.929
712.782
697.288
563.858
615.671
645.258
640.493
598.064
599.399
731.839
1022.66
974.261
862.018
816.274
1004.48
1036.97
937.895
848.418
646.614
647.522
725.715
559.318
392.468
480.408
602.915
610.498
513.62
492.582
620.027
1066.1
961.989
873.156
830.533
1065.58
1116.78
1003.83
798.297
607.052
610.601
662.113
388.244
373.572
373.549
431.868
553.801
363.543
377.759
509.712
911.564
956.192
869.767
860.717
1101.32
1190.85
1020.21
636.426
587.466
579.33
586.605
371.175
369.502
368.783
381.316
423.715
359.81
388.843
596.683
820.862
441.74
466.743
463.15
475.007
500.393
558.445
629.603
677.339
702.159
726.922
755.723
782.325
801.457
817.099
837.405
862.321
877.384
869.052
838.134
800.435
776.434
776.219
791.205
156.528
81.4247
97.5296
134.517
202.151
282.433
348.716
402.859
471.59
564.62
664.029
733.53
765.735
782.783
818.477
870.029
890.433
827.768
712.696
614.535
573.449
599.571
664.652
5.224
3.14752
1.59002
0.94637
0.858865
7.3486
20.6361
36.208
70.8357
140.721
243.879
381.278
521.212
546.088
548.389
547.865
467.284
328.787
184.902
97.3279
61.0124
73.833
114.023
2.92844
1.71381
0.95288
0.544065
0.337041
0.364756
0.400812
0.3016
0.441746
27.1011
266.252
384.159
366.977
112.91
60.1557
118.631
253.256
288.233
143.287
71.7225
40.0954
38.3697
39.1421
1.45323
0.8703
0.519753
0.258498
0.127476
0.0945116
0.132562
0.216507
0.382914
0.555128
0.626439
0.371511
-0.135081
0.525744
4.75345
57.1014
249.862
321.755
321.543
262.812
39.5035
38.0505
38.4095
0.872834
0.471777
0.276376
0.117054
0.0743965
0.0931262
0.14044
0.218793
0.336362
0.400975
0.362564
0.273173
0.115182
0.0563519
0.468942
3.63046
67.2339
309.098
329.134
339.464
161.603
38.5151
38.7462
0.649658
0.286686
0.159893
0.0507787
0.0573956
0.0927982
0.142958
0.205346
0.275491
0.302687
0.219676
0.025043
-0.214536
-0.407329
-0.478422
-0.023289
3.36035
90.1187
354.611
367.749
341.431
39.95
39.4299
0.53363
0.192166
0.0641187
-0.0247578
0.030968
0.0781422
0.12471
0.161045
0.184297
0.173356
0.0981366
-0.0598944
-0.274281
-0.485424
-0.694644
-0.781053
0.0933523
12.1778
238.449
407.061
431.55
187.89
39.7416
0.473772
0.170452
-0.00369564
-0.0660024
-0.000544602
0.0692356
0.112577
0.126014
0.116026
0.0766107
-0.00104553
-0.123044
-0.28224
-0.460317
-0.644209
-0.78782
-0.678856
1.14427
70.2123
446.714
471.455
454.969
41.8108
0.435176
0.254727
0.0673844
-0.0139014
0.0301907
0.0905094
0.115338
0.106635
0.0752367
0.0229885
-0.056388
-0.162586
-0.288819
-0.427697
-0.565668
-0.68981
-0.756383
-0.432586
2.61054
157.616
520.572
555.316
431.616
0.376949
0.334131
0.226351
0.137669
0.123559
0.134067
0.124444
0.0934549
0.0485156
-0.00978928
-0.0851255
-0.176837
-0.280993
-0.390992
-0.49564
-0.584794
-0.647257
-0.614797
-0.00728953
4.22985
280.795
601.498
620.456
0.315036
0.358971
0.335326
0.258443
0.201754
0.165186
0.125868
0.0792307
0.0266133
-0.0333357
-0.10298
-0.181786
-0.267377
-0.35566
-0.438063
-0.505328
-0.552507
-0.562333
-0.493557
-0.073494
2.20456
331.453
662.056
0.285561
0.341026
0.343647
0.284311
0.220404
0.16642
0.114927
0.062616
0.00804935
-0.0506389
-0.114678
-0.18358
-0.255103
-0.327537
-0.394491
-0.44934
-0.487793
-0.50843
-0.49129
-0.467852
-0.477803
-0.422463
168.922
0.273109
0.303477
0.297135
0.253523
0.199993
0.147716
0.0963832
0.0449369
-0.00787078
-0.0632886
-0.12176
-0.182865
-0.244918
-0.306146
-0.36291
-0.410958
-0.446298
-0.467983
-0.470431
-0.467902
-0.460722
-0.377311
-0.443495
0.247793
0.25484
0.243464
0.21064
0.168004
0.122469
0.0755588
0.0275818
-0.0218139
-0.0731212
-0.12638
-0.181116
-0.236283
-0.290295
-0.341029
-0.385977
-0.422245
-0.448636
-0.460114
-0.422636
0.29447
0.0849732
-0.633884
0.210849
0.207737
0.196697
0.170523
0.135942
0.096941
0.0551252
0.0113904
-0.0340296
-0.081152
-0.12981
-0.179551
-0.229636
-0.279088
-0.32672
-0.371247
-0.41133
-0.447407
-0.475343
-0.524396
0.660165
2.40254
-0.703191
0.174433
0.168954
0.157675
0.135615
0.106853
0.0732648
0.0362582
-0.0031788
-0.04458
-0.087719
-0.13233
-0.178039
-0.224384
-0.270886
-0.317133
-0.36288
-0.408115
-0.454411
-0.503418
-0.569275
0.390866
2.68358
0.93858
0.14192
0.136838
0.125199
0.106087
0.0815055
0.052281
0.0195453
-0.0158635
-0.0534381
-0.0928527
-0.133819
-0.176076
-0.219417
-0.263763
-0.309284
-0.356561
-0.406689
-0.461312
-0.528455
-0.610897
-0.446438
2.70346
5.00796
0.11341
0.109015
0.0978929
0.0811982
0.0598193
0.0342081
0.00521443
-0.026511
-0.0605059
-0.0964398
-0.134053
-0.173183
-0.213813
-0.25616
-0.30077
-0.348724
-0.401928
-0.46221
-0.539174
-0.636741
-0.823229
0.680348
8.08442
0.088852
0.0849896
0.0748589
0.0602181
0.0414857
0.0189606
-0.00673159
-0.0350935
-0.0657423
-0.0983941
-0.13284
-0.168982
-0.206911
-0.246999
-0.289982
-0.337135
-0.390679
-0.453074
-0.532186
-0.638196
-0.823807
-1.13249
5.02054
0.067974
0.0645367
0.0554957
0.0426392
0.0261792
0.0063376
-0.0164204
-0.0417101
-0.0692277
-0.0987486
-0.130117
-0.163277
-0.198347
-0.235721
-0.276146
-0.320842
-0.371837
-0.431737
-0.505647
-0.603534
-0.7558
-1.02634
-1.26332
0.0503267
0.0472669
0.039295
0.0280197
0.0135571
-0.00391701
-0.0240501
-0.0465329
-0.0711207
-0.0976383
-0.125971
-0.156084
-0.188078
-0.222266
-0.259251
-0.299989
-0.345943
-0.39898
-0.461581
-0.538611
-0.639515
-0.805393
-1.03184
0.0355069
0.0327945
0.0258266
0.0159664
0.00328967
-0.0120688
-0.029836
-0.0497515
-0.0716068
-0.0952549
-0.120604
-0.147618
-0.176354
-0.207002
-0.239941
-0.27575
-0.315235
-0.359262
-0.408484
-0.463615
-0.524438
-0.59618
-0.698319
0.023178
0.020791
0.0147404
0.00615071
-0.00491559
-0.0183681
-0.0339893
-0.0515539
-0.0708735
-0.09181
-0.114272
-0.138209
-0.163623
-0.190586
-0.219262
-0.249898
-0.282787
-0.318116
-0.355744
-0.394829
-0.433718
-0.468718
-0.508995
0.0130535
0.0109732
0.00574601
-0.00170586
-0.0113197
-0.0230497
-0.036718
-0.0521279
-0.0691044
-0.0875081
-0.107234
-0.128208
-0.15038
-0.173733
-0.198274
-0.224027
-0.250987
-0.279014
-0.307748
-0.336236
-0.363324
-0.386426
-0.406343
0.00488709
0.00309207
-0.00140665
-0.00784681
-0.0161581
-0.0263332
-0.0382249
-0.0516613
-0.0664809
-0.0825406
-0.0997196
-0.117916
-0.137043
-0.157015
-0.177748
-0.199134
-0.221015
-0.243108
-0.264974
-0.28581
-0.304707
-0.319954
-0.330919
-0.00154232
-0.00307708
-0.00693982
-0.0124874
-0.0196403
-0.0284196
-0.0387026
-0.0503393
-0.0631832
-0.0770912
-0.0919308
-0.107579
-0.123917
-0.140822
-0.158153
-0.175736
-0.193338
-0.210627
-0.227148
-0.242237
-0.255175
-0.264894
-0.270891
-0.00644136
-0.00774434
-0.0110566
-0.015822
-0.0219531
-0.0294902
-0.0383284
-0.0483364
-0.0593839
-0.0713332
-0.0840469
-0.0973888
-0.111222
-0.125401
-0.13976
-0.154097
-0.168161
-0.181631
-0.194108
-0.205086
-0.214067
-0.220438
-0.223956
-0.0100076
-0.0111108
-0.0139471
-0.0180302
-0.0232653
-0.0297059
-0.0372579
-0.0458061
-0.0552358
-0.0654186
-0.0762197
-0.0874999
-0.099115
-0.110911
-0.122717
-0.134333
-0.145524
-0.156012
-0.165479
-0.173567
-0.179947
-0.184268
-0.186407
-0.0124299
-0.0133685
-0.0157898
-0.0192785
-0.0237305
-0.0292084
-0.0356242
-0.0428762
-0.0508636
-0.0594696
-0.0685675
-0.0780236
-0.0876959
-0.0974334
-0.107073
-0.116432
-0.125306
-0.133466
-0.140672
-0.146674
-0.15126
-0.154232
-0.155557
-0.0138854
-0.0146958
-0.0167501
-0.0197212
-0.0234882
-0.0281228
-0.0335402
-0.03965
-0.0463635
-0.0535758
-0.0611722
-0.0690294
-0.077015
-0.0849886
-0.0928018
-0.100295
-0.107297
-0.113628
-0.11911
-0.123573
-0.126889
-0.128962
-0.129823
-0.0145362
-0.0152526
-0.0169766
-0.0194987
-0.0226641
-0.0265603
-0.0311033
-0.0362117
-0.0418082
-0.047799
-0.0540829
-0.0605497
-0.0670803
-0.0735498
-0.0798281
-0.0857798
-0.091266
-0.0961488
-0.100301
-0.103611
-0.106009
-0.107458
-0.108016
-0.0145283
-0.0151741
-0.0166017
-0.0187357
-0.0213704
-0.0246208
-0.0283984
-0.0326315
-0.0372535
-0.0421802
-0.0473241
-0.0525888
-0.0578704
-0.0630613
-0.0680512
-0.072728
-0.0769817
-0.080709
-0.0838206
-0.0862468
-0.0879532
-0.0889355
-0.0892596
-0.0139934
-0.0145708
-0.0157424
-0.01754
-0.0197061
-0.0223924
-0.0254999
-0.0289694
-0.0327434
-0.0367467
-0.0409047
-0.0451346
-0.0493479
-0.0534543
-0.0573627
-0.0609827
-0.0642282
-0.0670229
-0.0693052
-0.0710334
-0.0721953
-0.0728044
-0.0729254
-0.0130462
-0.0135398
-0.0145013
-0.0160043
-0.0177585
-0.0199525
-0.0224729
-0.025277
-0.0283143
-0.031518
-0.0348263
-0.0381686
-0.041471
-0.0446595
-0.0476604
-0.0504018
-0.0528172
-0.0548505
-0.0564604
-0.057624
-0.0583419
-0.0586362
-0.058566
-0.0117826
-0.0121723
-0.0129663
-0.0142081
-0.0156035
-0.0173676
-0.0193735
-0.0215987
-0.0239966
-0.0265101
-0.0290888
-0.0316732
-0.0342027
-0.0366175
-0.038859
-0.0408706
-0.0426016
-0.0440115
-0.0450734
-0.0457768
-0.0461291
-0.0461555
-0.0459096
-0.0102819
-0.0105493
-0.0112096
-0.0122196
-0.0133039
-0.0146925
-0.0162486
-0.0179717
-0.0198166
-0.0217372
-0.0236932
-0.025635
-0.0275136
-0.0292819
-0.0308937
-0.0323055
-0.0334792
-0.0343864
-0.0350105
-0.0353486
-0.0354122
-0.0352271
-0.0348456
-0.00861221
-0.00873858
-0.00929275
-0.0100951
-0.0109098
-0.0119706
-0.0131353
-0.0144256
-0.0157953
-0.0172107
-0.0186402
-0.0200428
-0.0213804
-0.0226169
-0.0237171
-0.0246483
-0.0253827
-0.0259011
-0.0261941
-0.0262637
-0.0261239
-0.0258018
-0.0253507
-0.00682253
-0.00679197
-0.00727067
-0.00788035
-0.0084605
-0.00923527
-0.0100613
-0.0109811
-0.0119457
-0.012935
-0.0139244
-0.0148812
-0.0157779
-0.0165879
-0.0172856
-0.0178474
-0.018254
-0.0184929
-0.0185599
-0.0184601
-0.0182091
-0.0178341
-0.0173883
-0.0049653
-0.00478107
-0.00519304
-0.00561537
-0.00599245
-0.00651851
-0.00705365
-0.0076584
-0.00828039
-0.00891427
-0.00954055
-0.0101359
-0.0106822
-0.0111612
-0.0115555
-0.0118495
-0.0120303
-0.0120914
-0.0120315
-0.0118575
-0.0115835
-0.0112337
-0.0108563
-0.00298553
-0.00272486
-0.00309115
-0.00332283
-0.00352465
-0.003827
-0.00411223
-0.00444663
-0.00477898
-0.00511776
-0.00544765
-0.00575483
-0.00602935
-0.00626033
-0.00643746
-0.00655234
-0.0065977
-0.00657083
-0.00647206
-0.00630722
-0.00608528
-0.00582303
-0.00555748
-0.00129447
-0.000883985
-0.00103611
-0.00110266
-0.00116684
-0.00127505
-0.00135178
-0.00145632
-0.0015454
-0.00163799
-0.00172272
-0.00179745
-0.0018589
-0.00190325
-0.00192713
-0.0019284
-0.00190575
-0.00185912
-0.00178974
-0.00170072
-0.00159535
-0.00148187
-0.00137841
808.222
820.982
837.525
858.496
721.816
753.707
780.278
815.921
163.429
186.313
206.952
249.36
40.3068
40.3194
40.3028
44.5601
38.9678
39.6702
41.4856
47.3927
38.9886
39.446
40.9081
44.3255
39.6709
39.944
40.6471
41.5953
40.2505
40.4492
40.574
40.9989
41.1583
41.2603
41.4594
41.5056
56.145
78.7314
47.0814
41.82
629.097
607.84
209.254
266.87
679.545
688.995
697.882
699.351
689.139
704.804
706.559
701.515
-0.868255
-1.09113
4.93904
344.255
-0.760897
-0.813065
-0.846976
-1.05911
-0.854336
-0.951955
-1.08663
-1.18865
-1.08805
-1.22591
-1.33627
-1.41823
-1.33486
-1.46838
-1.55684
-1.48079
5.77542
-1.61966
-1.77074
0.0585926
8.063
8.06639
8.03566
8.15603
0.211945
2.45291
2.40854
5.43466
-1.16813
-1.22378
-1.22961
-1.1895
-0.758421
-0.788105
-0.810785
-0.816411
-0.531436
-0.541162
-0.545517
-0.542783
-0.41588
-0.418427
-0.418271
-0.415594
-0.334308
-0.334487
-0.333362
-0.330903
-0.271905
-0.271587
-0.270724
-0.269169
-0.224181
-0.223719
-0.223001
-0.221928
-0.186244
-0.185741
-0.185129
-0.184351
-0.155281
-0.154847
-0.154358
-0.153745
-0.129587
-0.129275
-0.128956
-0.128618
-0.10781
-0.107565
-0.107314
-0.107045
-0.0890559
-0.0888415
-0.0886189
-0.0883772
-0.0726939
-0.0724824
-0.0722605
-0.0720204
-0.0582798
-0.0580501
-0.0578124
-0.0575632
-0.0455558
-0.0452961
-0.04503
-0.0447529
-0.0344432
-0.0341658
-0.0338884
-0.0336083
-0.0249464
-0.0246799
-0.0244225
-0.0241754
-0.0170305
-0.0168027
-0.0165917
-0.0164054
-0.0105798
-0.0104089
-0.0102606
-0.0101467
-0.00537193
-0.00525922
-0.00516894
-0.00511297
-0.00131341
-0.00127704
-0.00125144
-0.0012435
939.417
872.63
933.26
1131.13
1244.84
926.821
565.391
565.407
609.706
458.843
365.714
361.529
357.888
359.598
385.839
332.179
439.12
817.598
1040.42
884.596
918.437
967.434
1047.57
1142.81
684.631
511.354
521.235
604.547
387.784
352.913
349.012
347.161
343.407
342.163
325.699
412.622
555.17
795.95
436.621
599.717
743.766
957.834
1004.75
458.453
406.696
561.321
556.159
496.853
329.95
339.205
402.619
342.679
340.947
331.441
329.212
361.933
870.568
91.1076
573.978
879.759
934.68
843.647
238.241
248.829
470.366
487.92
495.671
509.303
473.337
511.414
437.389
338.662
344.81
411.676
606.167
1255.15
113.798
714.454
954.542
986.652
726.409
92.9698
80.1959
339.265
426.372
399.866
313.87
413.117
437.984
484.891
505.155
525.387
758.56
944.574
1255.86
61.5534
463.147
1018.67
1047.15
718.064
32.4468
16.4276
103.886
195.623
65.102
15.3184
175.094
280.629
376.445
404.184
423.278
350.065
555.58
1259.68
43.7641
189.469
885.861
1102.43
658.023
17.9912
1.2413
12.7356
3.72425
6.61906
7.42271
6.6455
4.86991
1.91917
2.76077
8.1268
30.617
84.1473
556.301
41.9046
47.0818
348.639
766.47
280.987
41.6729
14.9548
30.5618
166.676
5.7344
7.01934
6.04686
3.89551
0.888895
-1.17991
-0.480802
6.56915
39.0099
106.186
41.4471
41.7554
106.628
449.81
506.286
67.7322
39.0476
33.1833
689.48
142.154
36.1431
4.98673
2.84059
-0.102287
-2.38748
-2.82933
-1.25917
23.0659
309.914
68.6672
172.349
764.652
1100.78
1110.28
446.901
143.413
425.744
890.718
354.389
81.9557
19.4215
1.80679
-0.361338
-1.51138
-1.89247
-1.44974
7.87028
1004.05
927.155
1168.1
1186.56
1217.78
1246.93
1222.16
1035.91
996.987
479.276
54.305
104.592
119.571
25.4348
0.0270416
0.0574041
0.0757842
0.156102
-0.569315
576.615
667.611
654.567
670.371
910.792
1232.44
1266.49
1208.14
864.992
91.6223
64.1589
123.42
129.723
48.2203
0.0303151
0.801981
1.03954
1.22538
0.471899
5.64636
698.636
712.408
715.862
584.882
591.321
615.218
564.387
250.378
89.7755
84.1179
135.267
98.6099
8.40353
0.731869
0.853149
1.00967
7.31201
1.43032
0.434624
562.862
618.382
582.133
632.034
637.365
637.297
595.791
317.696
139.825
147.838
148.337
47.9427
-0.779965
-0.0214999
0.366838
1.36751
9.1963
1.4593
0.335891
-1.23508
-0.832823
13.257
88.4731
113.222
79.4468
24.2364
50.1048
62.1959
33.5999
5.35514
-1.20243
-0.721176
-0.227258
-0.0265615
1.41072
9.29698
1.12834
0.235842
-1.20126
-0.917626
-0.625387
-0.432695
-0.287349
-0.261243
-0.295156
-0.469195
-0.776453
-1.27702
-1.52441
-1.17581
-0.714712
-0.396426
-0.267834
0.660762
9.34893
1.0993
0.176433
-1.417
-1.07941
-0.711566
-0.455254
-0.294971
-0.273281
-0.334876
-0.519082
-0.810639
-1.19647
-1.43486
-1.23365
-0.839766
-0.573514
-0.457816
-0.210951
9.24683
0.882371
0.431593
-1.53081
-1.10227
-0.808725
-0.473023
-0.266845
-0.199228
-0.225643
-0.386966
-0.74058
-1.2282
-1.51007
-1.36761
-0.976364
-0.695036
-0.582584
-0.67095
8.68423
0.0319745
35.3648
4.87773
0.55972
-0.860121
-0.454714
-0.235457
-0.136598
-0.128568
-0.286314
-0.646799
-1.13504
-1.44032
-1.33091
-0.992858
-0.736555
-0.633225
-0.700124
1.61617
-0.823674
57.4789
8.02156
1.93074
-0.831791
-0.422089
-0.221845
-0.13939
-0.13437
-0.245797
-0.539246
-0.926287
-1.16966
-1.11705
-0.885436
-0.699277
-0.618739
-0.645087
-0.757951
-0.725524
4.24562
6.00173
-0.204309
-0.729593
-0.392624
-0.230473
-0.173395
-0.183679
-0.267189
-0.437427
-0.669649
-0.834982
-0.838052
-0.726949
-0.619437
-0.558097
-0.504908
-0.523867
-0.502001
-0.434902
-1.20727
-0.92157
-0.593626
-0.36017
-0.247472
-0.20979
-0.218341
-0.269406
-0.364723
-0.492705
-0.599751
-0.632025
-0.592695
-0.530993
-0.47659
-0.268809
-0.261962
-0.243094
-0.240349
-0.79813
-0.660317
-0.468727
-0.32845
-0.257644
-0.232208
-0.236514
-0.266483
-0.320506
-0.393208
-0.462198
-0.496119
-0.483121
-0.443732
-0.39249
-0.0968687
0.397549
0.378579
-0.0462957
-0.530604
-0.473237
-0.382306
-0.303981
-0.257558
-0.237758
-0.236988
-0.252002
-0.281628
-0.323411
-0.366581
-0.393865
-0.392522
-0.366618
-0.320806
0.108145
0.572334
0.688072
0.0984759
-0.406717
-0.375043
-0.325242
-0.277279
-0.24518
-0.22902
-0.224741
-0.22989
-0.244093
-0.267392
-0.294973
-0.317262
-0.321972
-0.305893
-0.268132
0.254045
0.663869
0.611826
0.130758
-0.323984
-0.304049
-0.275329
-0.246298
-0.22453
-0.211321
-0.204824
-0.203668
-0.208704
-0.221867
-0.240734
-0.26008
-0.268492
-0.261011
-0.233509
0.200531
0.72243
0.179038
0.13246
-0.264671
-0.251852
-0.234201
-0.215826
-0.200543
-0.189495
-0.181819
-0.17697
-0.176927
-0.184578
-0.198271
-0.215836
-0.226496
-0.227168
-0.209432
-0.0603823
0.252637
0.0870591
0.112181
-0.218886
-0.210341
-0.198963
-0.186954
-0.17611
-0.167062
-0.159325
-0.153014
-0.150431
-0.155076
-0.164941
-0.179744
-0.184815
-0.194222
-0.184367
-0.117601
-0.0215448
0.0462202
0.0793464
-0.182247
-0.17655
-0.169035
-0.161018
-0.153383
-0.146401
-0.139783
-0.133717
-0.130615
-0.1333
-0.139225
-0.141995
-0.109293
-0.126907
-0.149495
-0.0892083
-0.0242283
0.0201135
0.0476494
-0.152039
-0.148414
-0.143408
-0.138096
-0.133002
-0.128216
-0.123658
-0.119061
-0.117173
-0.118113
-0.120197
-0.0943667
-0.076024
-0.074678
-0.105109
-0.0723081
-0.0327014
-0.000597607
0.0219715
-0.12781
-0.124781
-0.121277
-0.11779
-0.114603
-0.111746
-0.10929
-0.106839
-0.105939
-0.106019
-0.105586
-0.0804412
-0.052183
-0.0470163
-0.0787625
-0.0619895
-0.0378711
-0.0140831
0.00317126
-0.106391
-0.104283
-0.101812
-0.0994698
-0.0974392
-0.0957341
-0.0945124
-0.0938177
-0.093162
-0.0930628
-0.0919368
-0.0902885
-0.0719038
-0.0688681
-0.0676368
-0.0573701
-0.0397623
-0.0204889
-0.00761515
-0.0878195
-0.0862658
-0.0844403
-0.0827215
-0.0811866
-0.0798106
-0.0787528
-0.0782248
-0.0780807
-0.0780381
-0.0775037
-0.0769037
-0.0745161
-0.0704075
-0.0631112
-0.052302
-0.0399879
-0.0269922
-0.0171496
-0.0714975
-0.070243
-0.0687908
-0.0674036
-0.0660691
-0.0647196
-0.0635167
-0.0627531
-0.0625586
-0.0631045
-0.0642278
-0.0651952
-0.0641565
-0.0611664
-0.0556464
-0.0484449
-0.0402951
-0.0344483
-0.0298429
-0.057071
-0.0559362
-0.054718
-0.0535796
-0.0524869
-0.0513834
-0.0504704
-0.0500316
-0.0501937
-0.0514017
-0.0539131
-0.0563015
-0.0564361
-0.0548672
-0.0512796
-0.0469392
-0.0418743
-0.0386699
-0.0366809
-0.0442292
-0.0432699
-0.0423117
-0.0415201
-0.0408857
-0.0403899
-0.0403026
-0.0407591
-0.0417007
-0.0437003
-0.0470954
-0.0502647
-0.0515285
-0.0513716
-0.0494951
-0.0472212
-0.0446413
-0.0427507
-0.0422968
-0.0331174
-0.0323861
-0.0318002
-0.0315207
-0.0315588
-0.0319058
-0.032872
-0.0343751
-0.0362309
-0.0390536
-0.0430407
-0.0466968
-0.0488189
-0.049971
-0.0495728
-0.0489162
-0.0479922
-0.0471547
-0.0473498
-0.0237805
-0.0233663
-0.0232558
-0.0235902
-0.0243931
-0.025632
-0.0275906
-0.0300417
-0.032824
-0.0364784
-0.0410036
-0.0451446
-0.0481296
-0.0502045
-0.0511102
-0.0518034
-0.0519392
-0.0520815
-0.0523989
-0.0161518
-0.0160995
-0.0164905
-0.0174406
-0.0189819
-0.021066
-0.023882
-0.0271964
-0.0309272
-0.0354147
-0.0404596
-0.0450741
-0.0488026
-0.0517354
-0.0537612
-0.0554435
-0.0563737
-0.0572205
-0.0575629
-0.010031
-0.0103069
-0.0111548
-0.0126807
-0.0149072
-0.0177897
-0.0214039
-0.0255702
-0.030241
-0.035509
-0.0410596
-0.0461846
-0.0505957
-0.0542545
-0.0571527
-0.0595507
-0.0611255
-0.0624172
-0.06286
-0.00510902
-0.00563798
-0.00690265
-0.00898141
-0.0118773
-0.0155575
-0.0200181
-0.0251129
-0.0307396
-0.03677
-0.0428404
-0.0484823
-0.0535107
-0.057862
-0.0615474
-0.0646105
-0.0668129
-0.068456
-0.0689793
-0.00129424
-0.00196518
-0.0036052
-0.0062407
-0.0098436
-0.0144252
-0.0198762
-0.0260386
-0.0327551
-0.0396765
-0.0463554
-0.0524919
-0.0581241
-0.0632161
-0.0677677
-0.0717037
-0.0745926
-0.0767502
-0.0770184
)
;

boundaryField
{
    leftWall
    {
        type            fixedFluxPressure;
        gradient        uniform 0;
        value           nonuniform List<scalar> 
50
(
636.611
636.132
632.901
627.44
620.759
613.63
606.519
599.086
441.74
156.528
5.224
2.92844
1.45323
0.872834
0.649658
0.53363
0.473772
0.435176
0.376949
0.315036
0.285561
0.273109
0.247793
0.210849
0.174433
0.14192
0.11341
0.088852
0.067974
0.0503267
0.0355069
0.023178
0.0130535
0.00488709
-0.00154232
-0.00644136
-0.0100076
-0.0124299
-0.0138854
-0.0145362
-0.0145283
-0.0139934
-0.0130462
-0.0117826
-0.0102819
-0.00861221
-0.00682253
-0.0049653
-0.00298553
-0.00129447
)
;
    }
    rightWall
    {
        type            fixedFluxPressure;
        gradient        uniform 0;
        value           nonuniform List<scalar> 
50
(
898.11
864.779
862.438
889.639
1022.66
1066.1
911.564
820.862
1040.42
795.95
870.568
1255.15
1255.86
1259.68
556.301
106.186
309.914
1004.05
576.615
5.64636
0.434624
0.335891
0.235842
0.176433
0.431593
35.3648
57.4789
4.24562
-0.434902
-0.240349
-0.0462957
0.0984759
0.130758
0.13246
0.112181
0.0793464
0.0476494
0.0219715
0.00317126
-0.00761515
-0.0171496
-0.0298429
-0.0366809
-0.0422968
-0.0473498
-0.0523989
-0.0575629
-0.06286
-0.0689793
-0.0770184
)
;
    }
    lowerWall
    {
        type            fixedFluxPressure;
        gradient        uniform 0;
        value           nonuniform List<scalar> 
62
(
636.611
636.117
636.151
637.155
641.958
653.757
671.713
691.473
710.728
730.046
749.424
768.282
785.851
801.269
813.947
822.902
822.656
816.531
812.934
806.937
812.378
824.943
828.866
828.866
825.208
820.725
815.999
811.164
806.499
802.627
799.641
808.222
820.982
837.525
858.496
1089.61
1088.33
1067.54
1036.17
1001.51
974.261
961.989
956.192
1089.61
1008.16
979.529
1032.73
1062.29
965.556
969.826
980.379
947.717
918.531
918.919
825.404
737.938
704.632
705.953
724.611
747.016
750.415
898.11
)
;
    }
    atmosphere
    {
        type            totalPressure;
        rho             rho;
        psi             none;
        gamma           1;
        p0              uniform 0;
        value           nonuniform List<scalar> 
46
(
0
0
0
0
0
0
0
0
0
0
0
0
0
0
0
0
0
0
0
0
0
0
0
0
0
0
0
-7.93316e-06
-0.000673681
-0.00243744
-0.00537506
-0.0093305
-0.0144458
-0.0204345
-0.027203
-0.0346147
-0.0421357
-0.0491797
-0.0555325
-0.0615162
-0.0670466
-0.0721713
-0.0768107
-0.0800785
-0.0828547
-0.0824688
)
;
    }
    defaultFaces
    {
        type            empty;
    }
}


// ************************************************************************* //
