/*--------------------------------*- C++ -*----------------------------------*\
| =========                 |                                                 |
| \\      /  F ield         | OpenFOAM: The Open Source CFD Toolbox           |
|  \\    /   O peration     | Version:  5.x                                   |
|   \\  /    A nd           | Web:      www.OpenFOAM.org                      |
|    \\/     M anipulation  |                                                 |
\*---------------------------------------------------------------------------*/
FoamFile
{
    version     2.0;
    format      ascii;
    class       surfaceScalarField;
    location    "0.8";
    object      phi;
}
// * * * * * * * * * * * * * * * * * * * * * * * * * * * * * * * * * * * * * //

dimensions      [0 3 -1 0 0 0 0];

internalField   nonuniform List<scalar> 
4432
(
-4.31391e-06
4.31391e-06
-9.24858e-06
4.93467e-06
-1.39157e-05
4.66716e-06
-1.84982e-05
4.58248e-06
-2.20182e-05
3.51995e-06
-2.26706e-05
6.52383e-07
-2.06363e-05
-2.03431e-06
-1.79663e-05
-2.66995e-06
-1.6294e-05
-1.6723e-06
-1.57628e-05
-5.3123e-07
-1.59749e-05
2.1213e-07
-1.66646e-05
6.89699e-07
-1.76824e-05
1.01782e-06
-1.87654e-05
1.08302e-06
-1.9209e-05
4.43558e-07
-1.83278e-05
-8.81188e-07
-1.82809e-05
-4.6959e-08
-2.25988e-05
4.3179e-06
-2.69164e-05
4.31763e-06
-2.59726e-05
-9.43751e-07
-1.94766e-05
-6.49606e-06
-9.36376e-06
-1.01128e-05
-9.36375e-06
-6.68135e-06
1.09953e-05
-1.25607e-05
1.0814e-05
-1.74155e-05
9.52196e-06
-2.15364e-05
8.70334e-06
-2.39847e-05
5.96825e-06
-2.38438e-05
5.11532e-07
-2.14536e-05
-4.4245e-06
-1.84316e-05
-5.69197e-06
-1.6455e-05
-3.64896e-06
-1.57551e-05
-1.23107e-06
-1.5817e-05
2.7402e-07
-1.62329e-05
1.10557e-06
-1.67437e-05
1.52859e-06
-1.7307e-05
1.64632e-06
-1.81523e-05
1.28893e-06
-1.99737e-05
9.40137e-07
-2.28174e-05
2.79681e-06
-2.46411e-05
6.14156e-06
-2.30503e-05
2.72681e-06
-1.85154e-05
-5.47859e-06
-1.29416e-05
-1.20699e-05
-6.34297e-06
-1.67115e-05
-1.57067e-05
-6.29707e-06
1.72923e-05
-1.15918e-05
1.61088e-05
-1.62754e-05
1.42055e-05
-2.07183e-05
1.31463e-05
-2.38119e-05
9.06181e-06
-2.41176e-05
8.17247e-07
-2.19631e-05
-6.57901e-06
-1.91285e-05
-8.52655e-06
-1.71295e-05
-5.64792e-06
-1.6289e-05
-2.07162e-06
-1.61543e-05
1.39356e-07
-1.60974e-05
1.0486e-06
-1.57754e-05
1.20662e-06
-1.51335e-05
1.00444e-06
-1.45533e-05
7.08697e-07
-1.46987e-05
1.0856e-06
-1.50613e-05
3.15943e-06
-1.35847e-05
4.66488e-06
-1.04655e-05
-3.92301e-07
-6.98901e-06
-8.95512e-06
-4.39222e-06
-1.46667e-05
-1.65936e-06
-1.94443e-05
-1.73661e-05
-5.06227e-06
2.23546e-05
-9.69522e-06
2.07417e-05
-1.41388e-05
1.86491e-05
-1.83325e-05
1.734e-05
-2.1112e-05
1.18413e-05
-2.16171e-05
1.32235e-06
-2.03393e-05
-7.85678e-06
-1.88501e-05
-1.00158e-05
-1.77494e-05
-6.74859e-06
-1.71719e-05
-2.64911e-06
-1.71088e-05
7.62242e-08
-1.71117e-05
1.05144e-06
-1.67316e-05
8.26587e-07
-1.57117e-05
-1.54927e-08
-1.40734e-05
-9.29542e-07
-1.18829e-05
-1.10497e-06
-8.65527e-06
-6.81848e-08
-4.14262e-06
1.52228e-07
-1.67779e-07
-4.36713e-06
2.14136e-06
-1.12643e-05
2.04869e-06
-1.4574e-05
1.47e-06
-1.88656e-05
-1.58961e-05
-3.43196e-06
2.57865e-05
-7.09627e-06
2.4406e-05
-1.07004e-05
2.22532e-05
-1.37588e-05
2.03984e-05
-1.54397e-05
1.35222e-05
-1.58487e-05
1.73132e-06
-1.60833e-05
-7.62219e-06
-1.69886e-05
-9.11045e-06
-1.78494e-05
-5.88781e-06
-1.8136e-05
-2.36254e-06
-1.82597e-05
1.99921e-07
-1.82817e-05
1.07347e-06
-1.79289e-05
4.73852e-07
-1.69337e-05
-1.01071e-06
-1.5158e-05
-2.70524e-06
-1.23192e-05
-3.94377e-06
-7.94052e-06
-4.44687e-06
-2.47034e-06
-5.31795e-06
1.942e-06
-8.77948e-06
3.90132e-06
-1.32236e-05
3.61246e-06
-1.42851e-05
2.20024e-06
-1.74534e-05
-1.36958e-05
-1.32845e-06
2.7115e-05
-3.48281e-06
2.65604e-05
-5.92388e-06
2.46943e-05
-7.62835e-06
2.21029e-05
-8.02902e-06
1.39229e-05
-8.37224e-06
2.07453e-06
-1.05445e-05
-5.44994e-06
-1.42567e-05
-5.39819e-06
-1.74238e-05
-2.72077e-06
-1.89804e-05
-8.0597e-07
-1.9482e-05
7.01571e-07
-1.95092e-05
1.10061e-06
-1.90472e-05
1.19354e-08
-1.7947e-05
-2.11097e-06
-1.61091e-05
-4.54311e-06
-1.33282e-05
-6.72469e-06
-9.24501e-06
-8.53005e-06
-4.26775e-06
-1.02952e-05
-1.77935e-07
-1.28693e-05
2.1624e-06
-1.55639e-05
2.51598e-06
-1.46387e-05
1.79367e-06
-1.67311e-05
-1.19022e-05
8.74937e-07
2.62401e-05
3.09355e-07
2.71259e-05
-6.61342e-07
2.5665e-05
-7.89147e-07
2.22307e-05
1.42043e-07
1.29917e-05
-7.92735e-07
3.0093e-06
-6.12288e-06
-1.19792e-07
-1.23036e-05
7.82514e-07
-1.70079e-05
1.98358e-06
-1.97169e-05
1.90304e-06
-2.07662e-05
1.75084e-06
-2.0841e-05
1.17536e-06
-2.02288e-05
-6.00261e-07
-1.89304e-05
-3.40937e-06
-1.68715e-05
-6.602e-06
-1.38828e-05
-9.71337e-06
-9.68324e-06
-1.27296e-05
-4.73131e-06
-1.52471e-05
-4.37972e-07
-1.71626e-05
2.00287e-06
-1.80047e-05
2.75609e-06
-1.53919e-05
2.0809e-06
-1.60559e-05
-9.82127e-06
3.21768e-06
2.30224e-05
5.67133e-06
2.46723e-05
7.28392e-06
2.40524e-05
8.63245e-06
2.08821e-05
7.64686e-06
1.39773e-05
1.95031e-06
8.70586e-06
-6.155e-06
7.98551e-06
-1.26951e-05
7.32257e-06
-1.69855e-05
6.27404e-06
-1.9901e-05
4.81856e-06
-2.16031e-05
3.45285e-06
-2.2086e-05
1.65825e-06
-2.14289e-05
-1.25736e-06
-1.97134e-05
-5.12487e-06
-1.70904e-05
-9.22499e-06
-1.35367e-05
-1.3267e-05
-8.70703e-06
-1.75593e-05
-3.12959e-06
-2.08246e-05
1.60676e-06
-2.1899e-05
4.26169e-06
-2.06597e-05
4.98443e-06
-1.61147e-05
3.51264e-06
-1.45841e-05
-6.30862e-06
-1.78333e-05
1.78333e-05
-4.26312e-05
2.47979e-05
-4.56077e-05
2.97648e-06
-2.55577e-05
-2.00499e-05
2.78253e-07
-2.5836e-05
8.28424e-06
-8.00599e-06
1.56558e-06
6.71866e-06
-2.04564e-05
2.2022e-05
-6.07102e-05
4.02538e-05
-7.18218e-05
1.11115e-05
-3.43019e-05
-3.75199e-05
-7.1476e-06
-2.71542e-05
-6.66376e-06
-4.83837e-07
-1.02391e-05
3.57536e-06
-1.23345e-05
2.09536e-06
-1.45147e-05
2.18024e-06
-1.98518e-05
5.3371e-06
-2.64439e-05
6.59212e-06
-2.64439e-05
-2.86875e-05
4.65208e-05
-4.46831e-05
4.07935e-05
-3.86216e-05
-3.08504e-06
-1.79723e-05
-4.06993e-05
3.37636e-06
-4.71846e-05
4.54052e-06
-9.17016e-06
-2.32691e-05
3.45282e-05
-7.08037e-05
6.95566e-05
-9.13554e-05
6.08056e-05
-4.54657e-05
-3.47782e-05
1.07107e-05
-9.36963e-05
2.61635e-05
-4.2607e-05
3.23239e-05
-6.64427e-06
3.79957e-05
-2.09643e-06
4.0799e-05
-7.07937e-07
2.54969e-05
1.74824e-05
-5.63223e-06
3.64662e-05
-1.4708e-05
1.56679e-05
-4.11519e-05
-2.53452e-05
7.1866e-05
-3.51616e-05
5.06099e-05
-2.95211e-05
-8.72553e-06
-1.33887e-05
-5.68316e-05
-7.69957e-07
-5.98034e-05
-1.07393e-05
7.9914e-07
-5.24175e-05
7.62065e-05
-9.42629e-05
0.000111402
-7.06058e-05
3.71485e-05
-1.72925e-05
-8.80915e-05
9.23996e-06
-0.000120229
1.32954e-05
-4.66625e-05
1.60238e-05
-9.37265e-06
2.67009e-05
-1.27735e-05
4.36634e-05
-1.76704e-05
5.79983e-05
3.1475e-06
6.04923e-05
3.39722e-05
3.53519e-05
4.08083e-05
-5.80007e-06
-1.87448e-05
9.06108e-05
-2.584e-05
5.77051e-05
-2.28711e-05
-1.16944e-05
-1.17526e-05
-6.79502e-05
-8.55543e-06
-6.30005e-05
-3.39875e-05
2.62312e-05
-7.75445e-05
0.000119764
-9.29684e-05
0.000126826
-4.92052e-05
-6.61469e-06
-9.4276e-06
-0.000127869
3.402e-07
-0.000129997
2.12236e-06
-4.84447e-05
3.13249e-06
-1.03828e-05
1.48305e-05
-2.44715e-05
3.23171e-05
-3.5157e-05
4.94409e-05
-1.39763e-05
6.27352e-05
2.06779e-05
4.4674e-05
5.88695e-05
3.88739e-05
-1.18329e-05
0.000102444
-1.75363e-05
6.34084e-05
-1.76917e-05
-1.1539e-05
-1.24973e-05
-7.31446e-05
-2.38085e-05
-5.16893e-05
-6.17294e-05
6.41521e-05
-9.98423e-05
0.000157876
-8.51397e-05
0.000112123
-3.31113e-05
-5.86431e-05
-7.27305e-06
-0.000153707
-4.62135e-06
-0.000132648
-8.08633e-06
-4.49797e-05
-1.04093e-05
-8.0598e-06
4.42655e-07
-3.53234e-05
2.30578e-05
-5.77722e-05
3.88858e-05
-2.98043e-05
4.90969e-05
1.04669e-05
4.93025e-05
5.86638e-05
8.81764e-05
-3.77328e-06
0.000106217
-6.30799e-06
6.59431e-05
-8.0697e-06
-9.77731e-06
-1.42883e-05
-6.6926e-05
-4.13609e-05
-2.46167e-05
-8.35696e-05
0.000106361
-0.000106159
0.000180466
-6.90759e-05
7.50404e-05
-2.5826e-05
-0.000101893
-1.58087e-05
-0.000163725
-1.54878e-05
-0.000132969
-1.98027e-05
-4.06648e-05
-2.24843e-05
-5.37822e-06
-1.54828e-05
-4.23249e-05
-2.16468e-06
-7.10903e-05
9.12988e-06
-4.10988e-05
1.23891e-05
7.20773e-06
2.30243e-05
4.80286e-05
0.000111201
5.17141e-06
0.000101046
5.62623e-06
6.54883e-05
2.35431e-06
-6.5054e-06
-1.55874e-05
-4.89842e-05
-5.58269e-05
1.56228e-05
-9.79001e-05
0.000148434
-0.000102082
0.000184648
-5.47716e-05
2.773e-05
-2.65465e-05
-0.000130118
-2.8053e-05
-0.000162218
-3.48706e-05
-0.000126151
-3.23866e-05
-4.31488e-05
-2.92195e-05
-8.54533e-06
-3.64316e-05
-3.51129e-05
-6.51414e-05
-4.23805e-05
-0.000111089
4.84888e-06
-9.11006e-05
-1.27808e-05
-3.52033e-05
-7.86869e-06
7.59974e-05
1.00407e-05
9.10049e-05
1.38277e-05
6.17014e-05
8.69094e-06
-1.36868e-06
-1.78075e-05
-2.24858e-05
-6.58766e-05
6.3692e-05
-0.000104291
0.000186849
-9.32035e-05
0.00017356
-5.03813e-05
-1.50922e-05
-3.40043e-05
-0.000146495
-4.01631e-05
-0.000156059
-5.68067e-05
-0.000109508
-4.55279e-05
-5.44275e-05
-3.47009e-05
-1.93724e-05
-6.54925e-05
-4.32131e-06
-0.000127184
1.93114e-05
-0.000166541
4.42057e-05
-0.000139552
-3.97697e-05
-8.83339e-05
-5.90869e-05
-1.23365e-05
6.07391e-06
1.69485e-05
3.18041e-06
2.75658e-05
-4.55303e-06
3.17858e-05
-1.6234e-05
3.25632e-05
-2.79445e-05
2.56877e-05
-3.60471e-05
1.68084e-05
-3.89729e-05
1.09113e-05
-3.95742e-05
7.92388e-06
-4.0618e-05
7.31783e-06
-4.34068e-05
7.6074e-06
-4.6441e-05
6.48705e-06
-4.70631e-05
2.28032e-06
-4.40573e-05
-4.26313e-06
-3.87424e-05
-1.04398e-05
-3.36551e-05
-1.43123e-05
-2.79591e-05
-1.8963e-05
-1.9134e-05
-2.63844e-05
-7.4442e-06
-3.25144e-05
3.75177e-06
-3.30949e-05
1.12985e-05
-2.82064e-05
1.36807e-05
-1.84968e-05
1.10519e-05
-1.19553e-05
-4.07695e-06
8.8202e-06
-6.28548e-05
7.98033e-05
-8.10309e-05
4.57419e-05
-9.26392e-05
4.33941e-05
-9.61478e-05
3.60717e-05
-9.46198e-05
2.41597e-05
-8.91812e-05
1.13698e-05
-8.37435e-05
5.47367e-06
-7.61894e-05
3.69787e-07
-6.67416e-05
-2.12998e-06
-5.90619e-05
-7.22943e-08
-5.47422e-05
2.16736e-06
-5.16018e-05
-8.60118e-07
-4.94884e-05
-6.37653e-06
-5.07003e-05
-9.22788e-06
-5.62225e-05
-8.79016e-06
-6.10008e-05
-1.41846e-05
-5.70626e-05
-3.03226e-05
-4.04224e-05
-4.91546e-05
-1.83585e-05
-5.51588e-05
-1.1018e-06
-4.54631e-05
4.36243e-06
-2.3961e-05
6.7328e-06
-1.43257e-05
-7.28979e-06
9.94564e-06
-0.000197672
0.000277475
-0.000258072
0.000106141
-0.000279674
6.49966e-05
-0.000280349
3.67463e-05
-0.000276437
2.02476e-05
-0.000272685
7.6175e-06
-0.000264874
-2.33723e-06
-0.000251723
-1.27807e-05
-0.000232358
-2.14947e-05
-0.000214402
-1.8029e-05
-0.000198284
-1.39503e-05
-0.000183191
-1.59534e-05
-0.000170973
-1.85942e-05
-0.000169757
-1.04442e-05
-0.000182798
4.25045e-06
-0.000189849
-7.13269e-06
-0.000166901
-5.32715e-05
-0.000114096
-0.000101959
-4.64474e-05
-0.000122808
8.48794e-06
-0.000100398
1.21768e-05
-2.76499e-05
2.94059e-06
-5.08944e-06
-8.09245e-06
3.74328e-06
-9.38944e-05
0.00037137
-0.000175424
0.000187671
-0.000231305
0.000120877
-0.000273773
7.92142e-05
-0.000304722
5.11969e-05
-0.000325383
2.82785e-05
-0.000336438
8.71706e-06
-0.00033599
-1.32282e-05
-0.000330559
-2.69256e-05
-0.000326954
-2.16337e-05
-0.000299813
-4.10914e-05
-0.000285391
-3.03759e-05
-0.000291935
-1.20503e-05
-0.000325225
2.28467e-05
-0.000349685
2.87104e-05
-0.00031612
-4.0698e-05
-0.000249634
-0.000119758
-0.000191366
-0.000160227
-0.000135751
-0.000178423
-5.2864e-05
-0.000183285
1.8598e-05
-9.91118e-05
3.88496e-05
-2.53411e-05
4.98848e-05
-1.91277e-05
-3.68038e-05
0.000408173
-8.61049e-05
0.000236972
-0.000123464
0.000158236
-0.000145392
0.000101142
-0.000154748
6.05527e-05
-0.000163659
3.71903e-05
-0.000177352
2.24093e-05
-0.000197692
7.11234e-06
-0.000224381
-2.36921e-07
-0.000256299
1.02844e-05
-0.00031938
2.19896e-05
-0.000377834
2.80784e-05
-0.000405343
1.54579e-05
-0.000390466
7.96974e-06
-0.000359637
-2.11865e-06
-0.000316116
-8.42189e-05
-0.000266989
-0.000168884
-0.000235983
-0.000191234
-0.000219355
-0.00019505
-0.000213597
-0.000189043
-0.00016718
-0.000145528
-0.000153706
-3.88145e-05
4.52043e-05
-0.000149025
-5.19079e-06
0.000413364
-3.34819e-05
0.000265263
-5.21861e-05
0.00017694
-5.77556e-05
0.000106711
-5.17636e-05
5.45606e-05
-4.73018e-05
3.27284e-05
-5.07665e-05
2.58741e-05
-7.03779e-05
2.67236e-05
-0.000106436
3.58213e-05
-0.000147843
5.16914e-05
-0.000194041
6.81876e-05
-0.000238689
7.2727e-05
-0.000278506
5.52741e-05
-0.000305537
3.50015e-05
-0.00031163
3.9742e-06
-0.000304315
-9.15342e-05
-0.000289912
-0.000183287
-0.000268094
-0.000213052
-0.000250731
-0.000212413
-0.000242544
-0.00019723
-0.000226194
-0.000161879
-0.000205181
-5.98271e-05
2.32976e-05
-0.000183275
1.84861e-05
0.000394878
-7.4136e-06
0.000291162
-1.88178e-05
0.000188344
-2.03163e-05
0.00010821
-1.5352e-05
4.95963e-05
-1.18598e-05
2.9236e-05
-1.53878e-05
2.94022e-05
-2.64362e-05
3.77721e-05
-4.47465e-05
5.41315e-05
-6.77273e-05
7.46722e-05
-9.0507e-05
9.09672e-05
-0.000116329
9.85492e-05
-0.000150736
8.96812e-05
-0.00018463
6.88951e-05
-0.000208414
2.77584e-05
-0.000241132
-5.88165e-05
-0.000273716
-0.000150703
-0.000279
-0.000207768
-0.000270848
-0.000220565
-0.000262412
-0.000205666
-0.000253145
-0.000171145
-0.00021386
-9.9112e-05
5.59237e-06
-0.000196155
3.92029e-05
0.000355675
1.34352e-05
0.00031693
-8.09384e-07
0.000202589
-4.76093e-07
0.000107876
2.41091e-07
4.88791e-05
1.41758e-06
2.80596e-05
-3.9258e-06
3.47454e-05
-1.32131e-05
4.70595e-05
-2.09624e-05
6.18809e-05
-2.80575e-05
8.17673e-05
-3.51272e-05
9.80368e-05
-4.3352e-05
0.000106774
-5.98193e-05
0.000106148
-8.44734e-05
9.35491e-05
-0.000119727
6.3012e-05
-0.000174956
-3.58715e-06
-0.000226952
-9.87068e-05
-0.000259597
-0.000175123
-0.000268825
-0.000211337
-0.000268148
-0.000206343
-0.000262529
-0.000176765
-0.000237419
-0.000124221
-2.78346e-05
-0.000203992
5.95413e-05
0.000296134
5.09303e-05
0.000325541
3.31884e-05
0.00022033
2.44659e-05
0.000116599
2.13276e-05
5.20172e-05
1.70694e-05
3.23177e-05
8.89418e-06
4.29206e-05
-2.23872e-06
5.81923e-05
-9.64565e-06
6.9288e-05
-1.14284e-05
8.35502e-05
-1.11549e-05
9.77633e-05
-1.03941e-05
0.000106013
-1.27894e-05
0.000108544
-2.33214e-05
0.000104081
-5.04528e-05
9.01433e-05
-0.000106026
5.19861e-05
-0.000174197
-3.05356e-05
-0.00022366
-0.00012566
-0.000249519
-0.000185478
-0.00025778
-0.000198082
-0.000256619
-0.000177927
-0.000246152
-0.000134689
-7.1798e-05
-0.000202188
6.89718e-05
0.000227162
8.87968e-05
0.000305716
7.97918e-05
0.000229335
6.57153e-05
0.000130675
5.14642e-05
6.62683e-05
3.64003e-05
4.73814e-05
2.24531e-05
5.68677e-05
9.99026e-06
7.0655e-05
7.74243e-07
7.8504e-05
-2.20391e-06
8.65282e-05
-5.79861e-07
9.61393e-05
2.8667e-06
0.000102567
5.67253e-06
0.000105738
3.62832e-06
0.000106125
-9.16979e-06
0.000102941
-4.55565e-05
8.83727e-05
-0.000112412
3.63199e-05
-0.000177994
-6.00783e-05
-0.000223341
-0.000140131
-0.000242136
-0.000179287
-0.00024519
-0.000174873
-0.000239927
-0.000139951
-9.15689e-05
-0.000220156
5.6895e-05
0.000170267
9.79362e-05
0.000264674
0.000107026
0.000220245
9.56635e-05
0.000142038
7.42123e-05
8.77196e-05
5.13362e-05
7.02576e-05
3.34752e-05
7.47289e-05
2.07489e-05
8.33813e-05
1.12031e-05
8.80498e-05
6.37561e-06
9.13556e-05
6.34556e-06
9.61693e-05
8.89012e-06
0.000100022
1.1822e-05
0.000102806
1.25504e-05
0.000105397
8.42194e-06
0.00010707
-8.73004e-06
0.000105524
-5.54816e-05
8.30714e-05
-0.000129445
1.38856e-05
-0.000188715
-8.08616e-05
-0.000226971
-0.000141031
-0.000235891
-0.000165953
-0.000232077
-0.000143765
-9.94696e-05
-0.000224176
2.98235e-05
0.000140443
7.61691e-05
0.000218329
9.94773e-05
0.000196937
9.6319e-05
0.000145196
7.71987e-05
0.00010684
5.54798e-05
9.19765e-05
3.91095e-05
9.10991e-05
2.82853e-05
9.42056e-05
2.0281e-05
9.60541e-05
1.4972e-05
9.66645e-05
1.32317e-05
9.79096e-05
1.37653e-05
9.94883e-05
1.48394e-05
0.000101732
1.52875e-05
0.000104949
1.41313e-05
0.000108226
8.22053e-06
0.000111435
-1.54909e-05
0.000106783
-7.26065e-05
7.10012e-05
-0.000146848
-6.61994e-06
-0.000197952
-8.99269e-05
-0.000230346
-0.00013356
-0.000229231
-0.00014488
-0.000111283
-0.000217417
6.58335e-06
0.00013386
4.53884e-05
0.000179524
7.23614e-05
0.000169964
7.63584e-05
0.000141199
6.51729e-05
0.000118026
5.08265e-05
0.000106323
3.97345e-05
0.000102191
3.23213e-05
0.000101619
2.68044e-05
0.000101571
2.25271e-05
0.000100942
2.00537e-05
0.000100383
1.89457e-05
0.000100596
1.82478e-05
0.000102429
1.74795e-05
0.000105717
1.64095e-05
0.000109296
1.44011e-05
0.000113444
5.33708e-06
0.000115847
-2.61823e-05
0.000102521
-8.91579e-05
5.63557e-05
-0.000158139
-2.09455e-05
-0.000199361
-9.23381e-05
-0.000223319
-0.000120921
-0.000124734
-0.000209869
-2.94038e-06
0.0001368
2.39494e-05
0.000152634
4.63667e-05
0.000147547
5.34137e-05
0.000134152
4.9844e-05
0.000121595
4.33195e-05
0.000112847
3.77066e-05
0.000107804
3.36837e-05
0.000105642
3.05895e-05
0.000104665
2.78819e-05
0.00010365
2.56619e-05
0.000102603
2.38634e-05
0.000102395
2.22437e-05
0.000104049
2.06754e-05
0.000107285
1.90671e-05
0.000110904
1.75569e-05
0.000114954
1.42233e-05
0.000119181
-6.78697e-07
0.000117423
-4.22218e-05
9.78989e-05
-0.000106009
4.28419e-05
-0.000165445
-3.2902e-05
-0.000210047
-7.63191e-05
-9.84095e-05
-0.000236371
-1.46118e-06
0.000138261
1.46107e-05
0.000136562
2.99946e-05
0.000132163
3.70787e-05
0.000127068
3.81369e-05
0.000120537
3.67776e-05
0.000114207
3.49405e-05
0.000109641
3.3405e-05
0.000107177
3.21605e-05
0.00010591
3.08884e-05
0.000104922
2.94254e-05
0.000104066
2.77857e-05
0.000104035
2.61625e-05
0.000105673
2.46438e-05
0.000108804
2.30435e-05
0.000112504
2.15038e-05
0.000116494
1.96532e-05
0.000121031
1.2642e-05
0.000124434
-1.35417e-05
0.000124083
-6.68228e-05
9.6123e-05
-0.000118714
1.89895e-05
-0.000158144
-3.68891e-05
-5.45863e-05
-0.000201967
2.15131e-06
0.00013611
1.17866e-05
0.000126927
2.1711e-05
0.000122239
2.77948e-05
0.000120984
3.08101e-05
0.000117522
3.19924e-05
0.000113025
3.22521e-05
0.000109382
3.22787e-05
0.000107151
3.22864e-05
0.000105902
3.2111e-05
0.000105097
3.15396e-05
0.000104638
3.0604e-05
0.00010497
2.96435e-05
0.000106633
2.88675e-05
0.00010958
2.80808e-05
0.000113291
2.72346e-05
0.00011734
2.63625e-05
0.000121903
2.33031e-05
0.000127493
9.18848e-06
0.000138197
-3.34347e-05
0.000138746
-8.58279e-05
7.13826e-05
-0.00012514
2.42288e-06
-2.2646e-06
-0.000177462
4.30492e-06
0.000131805
1.1002e-05
0.00012023
1.77057e-05
0.000115535
2.27814e-05
0.000115909
2.63161e-05
0.000113987
2.85442e-05
0.000110797
2.9894e-05
0.000108032
3.08704e-05
0.000106175
3.17059e-05
0.000105067
3.23368e-05
0.000104467
3.26254e-05
0.000104349
3.26335e-05
0.000104962
3.26789e-05
0.000106588
3.30018e-05
0.000109257
3.35018e-05
0.000112791
3.40665e-05
0.000116775
3.48636e-05
0.000121106
3.51078e-05
0.000127249
3.09725e-05
0.000142332
3.8384e-06
0.00016588
-4.84669e-05
0.000123688
-7.92146e-05
3.31706e-05
2.44367e-05
-0.000105916
4.81542e-06
0.00012699
1.03505e-05
0.000114695
1.54527e-05
0.000110433
1.98167e-05
0.000111545
2.33578e-05
0.000110446
2.60066e-05
0.000108148
2.79641e-05
0.000106075
2.95556e-05
0.000104583
3.09728e-05
0.00010365
3.22284e-05
0.000103211
3.329e-05
0.000103288
3.42507e-05
0.000104002
3.53573e-05
0.000105481
3.6831e-05
0.000107783
3.8704e-05
0.000110918
4.08989e-05
0.00011458
4.36175e-05
0.000118388
4.69443e-05
0.000123922
5.08879e-05
0.000138389
4.37647e-05
0.000173003
-6.1812e-06
0.000173634
-5.07385e-05
7.77278e-05
2.40721e-05
-5.03739e-05
4.66808e-06
0.000122322
9.57693e-06
0.000109786
1.39017e-05
0.000106108
1.78258e-05
0.00010762
2.12743e-05
0.000106998
2.41244e-05
0.000105298
2.64692e-05
0.00010373
2.85046e-05
0.000102548
3.0379e-05
0.000101775
3.2159e-05
0.000101431
3.38923e-05
0.000101554
3.569e-05
0.000102204
3.77364e-05
0.000103435
4.02187e-05
0.000105301
4.32655e-05
0.000107871
4.68596e-05
0.000110986
5.1119e-05
0.000114128
5.66607e-05
0.00011838
6.55549e-05
0.000129494
7.56591e-05
0.000162899
5.20182e-05
0.000197275
-1.44776e-05
0.000144224
5.80833e-05
-4.84887e-05
4.39887e-06
0.000117923
8.84805e-06
0.000105337
1.27379e-05
0.000102218
1.63859e-05
0.000103973
1.975e-05
0.000103634
2.27178e-05
0.00010233
2.53339e-05
0.000101114
2.77165e-05
0.000100165
2.99806e-05
9.95112e-05
3.22175e-05
9.91942e-05
3.4516e-05
9.92557e-05
3.69914e-05
9.97285e-05
3.97869e-05
0.000100639
4.3063e-05
0.000102025
4.69923e-05
0.000103942
5.16453e-05
0.000106333
5.70104e-05
0.000108763
6.38469e-05
0.000111544
7.51026e-05
0.000118239
9.66999e-05
0.000141302
0.000110868
0.000183107
7.34507e-05
0.000181641
0.000113299
1.8235e-05
4.14783e-06
0.000113775
8.23276e-06
0.000101252
1.18399e-05
9.86114e-05
1.53029e-05
0.00010051
1.85988e-05
0.000100338
2.16381e-05
9.92909e-05
2.44472e-05
9.83045e-05
2.71033e-05
9.75089e-05
2.9696e-05
9.69185e-05
3.23192e-05
9.6571e-05
3.50721e-05
9.65027e-05
3.80655e-05
9.6735e-05
4.14231e-05
9.72816e-05
4.52877e-05
9.81602e-05
4.98404e-05
9.9389e-05
5.52352e-05
0.000100938
6.14542e-05
0.000102544
6.90095e-05
0.000103988
8.05917e-05
0.000106657
0.000104413
0.000117481
0.000141978
0.000145541
0.000157895
0.000165724
0.000136205
0.00013499
3.92258e-06
0.000109853
7.71337e-06
9.74613e-05
1.11208e-05
9.52041e-05
1.44525e-05
9.7178e-05
1.76895e-05
9.71013e-05
2.07665e-05
9.6214e-05
2.37052e-05
9.53657e-05
2.65629e-05
9.46512e-05
2.94119e-05
9.40694e-05
3.23363e-05
9.36466e-05
3.54302e-05
9.34089e-05
3.87957e-05
9.33694e-05
4.2547e-05
9.35304e-05
4.68173e-05
9.389e-05
5.17744e-05
9.4432e-05
5.76061e-05
9.51065e-05
6.43823e-05
9.57676e-05
7.22746e-05
9.6096e-05
8.28215e-05
9.61097e-05
0.000101894
9.84079e-05
0.000138673
0.000108762
0.000180921
0.000123476
0.000111762
0.000205364
3.7183e-06
0.000106134
7.26354e-06
9.39162e-05
1.05186e-05
9.19491e-05
1.37481e-05
9.39486e-05
1.69284e-05
9.39209e-05
2.00149e-05
9.31275e-05
2.30291e-05
9.23514e-05
2.60187e-05
9.16616e-05
2.90441e-05
9.10441e-05
3.21774e-05
9.05132e-05
3.55015e-05
9.00849e-05
3.91081e-05
8.97629e-05
4.31012e-05
8.95373e-05
4.76022e-05
8.93891e-05
5.27552e-05
8.92789e-05
5.8727e-05
8.91347e-05
6.56493e-05
8.88452e-05
7.355e-05
8.81953e-05
8.28596e-05
8.68001e-05
9.61766e-05
8.50909e-05
0.000120242
8.46968e-05
0.000155999
8.77194e-05
7.89241e-05
0.000188837
3.5326e-06
0.000102602
6.86535e-06
9.05834e-05
9.9922e-06
8.88223e-05
1.31312e-05
9.08096e-05
1.6251e-05
9.08011e-05
1.93217e-05
9.00568e-05
2.23658e-05
8.93072e-05
2.54245e-05
8.8603e-05
2.85496e-05
8.7919e-05
3.18028e-05
8.726e-05
3.52551e-05
8.66326e-05
3.89859e-05
8.60321e-05
4.30851e-05
8.54382e-05
4.7656e-05
8.48181e-05
5.28149e-05
8.41201e-05
5.86868e-05
8.32627e-05
6.54003e-05
8.21317e-05
7.30102e-05
8.05853e-05
8.15096e-05
7.83006e-05
9.15369e-05
7.50636e-05
0.00010557
7.06639e-05
0.000126869
6.64205e-05
5.61045e-05
0.000149688
3.36218e-06
9.92396e-05
6.50498e-06
8.74406e-05
9.51337e-06
8.58139e-05
1.25626e-05
8.77603e-05
1.56134e-05
8.77502e-05
1.86449e-05
8.70253e-05
2.16801e-05
8.62722e-05
2.47548e-05
8.55284e-05
2.79138e-05
8.47601e-05
3.12094e-05
8.39644e-05
3.47013e-05
8.31407e-05
3.84563e-05
8.22772e-05
4.2548e-05
8.13465e-05
4.7058e-05
8.0308e-05
5.20749e-05
7.9103e-05
5.76877e-05
7.76499e-05
6.3988e-05
7.58313e-05
7.1059e-05
7.35144e-05
7.88831e-05
7.04765e-05
8.74993e-05
6.64474e-05
9.72768e-05
6.08865e-05
0.000109712
5.39852e-05
4.31746e-05
0.000122642
3.20368e-06
9.60359e-05
6.17123e-06
8.44731e-05
9.06216e-06
8.2923e-05
1.20161e-05
8.48063e-05
1.4986e-05
8.47804e-05
1.79564e-05
8.40549e-05
2.09491e-05
8.32795e-05
2.3996e-05
8.24816e-05
2.71348e-05
8.16213e-05
3.04094e-05
8.06898e-05
3.38689e-05
7.96811e-05
3.75676e-05
7.85784e-05
4.15629e-05
7.7351e-05
4.59161e-05
7.59548e-05
5.06903e-05
7.43289e-05
5.59459e-05
7.23942e-05
6.17355e-05
7.00417e-05
6.81132e-05
6.71368e-05
7.50845e-05
6.35052e-05
8.26039e-05
5.89281e-05
9.04899e-05
5.30006e-05
9.88718e-05
4.56034e-05
3.55247e-05
0.000106522
3.05458e-06
9.29813e-05
5.85606e-06
8.16717e-05
8.62613e-06
8.01529e-05
1.14757e-05
8.19567e-05
1.43508e-05
8.19054e-05
1.7239e-05
8.11668e-05
2.01603e-05
8.03583e-05
2.31427e-05
7.94992e-05
2.62174e-05
7.85467e-05
2.94204e-05
7.74867e-05
3.27911e-05
7.63103e-05
3.63717e-05
7.49977e-05
4.02053e-05
7.35174e-05
4.4335e-05
7.18251e-05
4.88017e-05
6.98622e-05
5.36409e-05
6.7555e-05
5.88738e-05
6.48088e-05
6.45073e-05
6.15032e-05
7.05169e-05
5.74956e-05
7.68292e-05
5.26159e-05
8.32152e-05
4.66146e-05
8.94262e-05
3.93923e-05
3.03096e-05
9.46412e-05
2.91352e-06
9.00678e-05
5.55425e-06
7.9031e-05
8.1987e-06
7.75086e-05
1.09328e-05
7.92226e-05
1.36988e-05
7.91396e-05
1.64852e-05
7.83804e-05
1.93097e-05
7.75338e-05
2.21968e-05
7.66121e-05
2.51718e-05
7.55715e-05
2.82632e-05
7.43953e-05
3.15017e-05
7.30718e-05
3.49187e-05
7.15807e-05
3.85446e-05
6.98915e-05
4.24073e-05
6.79624e-05
4.65294e-05
6.57401e-05
5.09255e-05
6.31588e-05
5.55944e-05
6.014e-05
6.05116e-05
5.65859e-05
6.56218e-05
5.23854e-05
7.08258e-05
4.74119e-05
7.59293e-05
4.1511e-05
8.06847e-05
3.46368e-05
2.64522e-05
8.45421e-05
2.78062e-06
8.72873e-05
5.26226e-06
7.65495e-05
7.77683e-06
7.49941e-05
1.03842e-05
7.66153e-05
1.30275e-05
7.64963e-05
1.56947e-05
7.57132e-05
1.84012e-05
7.48274e-05
2.11674e-05
7.38459e-05
2.40139e-05
7.2725e-05
2.69624e-05
7.14468e-05
3.00359e-05
6.99982e-05
3.32568e-05
6.83599e-05
3.6645e-05
6.65034e-05
4.02162e-05
6.43912e-05
4.39794e-05
6.19768e-05
4.79338e-05
5.92043e-05
5.20641e-05
5.60096e-05
5.63318e-05
5.23181e-05
6.067e-05
4.80473e-05
6.49722e-05
4.31097e-05
6.90727e-05
3.74104e-05
7.27693e-05
3.09401e-05
2.35339e-05
7.56875e-05
2.65799e-06
8.46294e-05
4.977e-06
7.42307e-05
7.35842e-06
7.26127e-05
9.82953e-06
7.41442e-05
1.2339e-05
7.39868e-05
1.48727e-05
7.31795e-05
1.74438e-05
7.22564e-05
2.0069e-05
7.12207e-05
2.27644e-05
7.00297e-05
2.55462e-05
6.8665e-05
2.84312e-05
6.71133e-05
3.14341e-05
6.5357e-05
3.45668e-05
6.33707e-05
3.78361e-05
6.11218e-05
4.12416e-05
5.85712e-05
4.47728e-05
5.56729e-05
4.84061e-05
5.23762e-05
5.20984e-05
4.86257e-05
5.5782e-05
4.43637e-05
5.93579e-05
3.95338e-05
6.26874e-05
3.40809e-05
6.56128e-05
2.80146e-05
2.12605e-05
6.78861e-05
2.55045e-06
8.20791e-05
4.69569e-06
7.20856e-05
6.94024e-06
7.03682e-05
9.26857e-06
7.18158e-05
1.16365e-05
7.16188e-05
1.40262e-05
7.07899e-05
1.64491e-05
6.98336e-05
1.89184e-05
6.87514e-05
2.14465e-05
6.75016e-05
2.40453e-05
6.60662e-05
2.67261e-05
6.44326e-05
2.94981e-05
6.25849e-05
3.23672e-05
6.05015e-05
3.5334e-05
5.81549e-05
3.83921e-05
5.5513e-05
4.15256e-05
5.25394e-05
4.4707e-05
4.91948e-05
4.78932e-05
4.54396e-05
5.10214e-05
4.12356e-05
5.40062e-05
3.6549e-05
5.67371e-05
3.13498e-05
5.90967e-05
2.5655e-05
1.94363e-05
6.09209e-05
2.46438e-06
7.96148e-05
4.41795e-06
7.0132e-05
6.51771e-06
6.82684e-05
8.70041e-06
6.96331e-05
1.09225e-05
6.93967e-05
1.31614e-05
6.85511e-05
1.54274e-05
6.75676e-05
1.77315e-05
6.64474e-05
2.00826e-05
6.51504e-05
2.24892e-05
6.36595e-05
2.49584e-05
6.19633e-05
2.74951e-05
6.00481e-05
3.0101e-05
5.78956e-05
3.27725e-05
5.54833e-05
3.54999e-05
5.27856e-05
3.82649e-05
4.97744e-05
4.10396e-05
4.64202e-05
4.37837e-05
4.26956e-05
4.64425e-05
3.85769e-05
4.89455e-05
3.40461e-05
5.12066e-05
2.90888e-05
5.31385e-05
2.3723e-05
1.79411e-05
5.46337e-05
2.4034e-06
7.72114e-05
4.14829e-06
6.83872e-05
6.08829e-06
6.63284e-05
8.12384e-06
6.75976e-05
1.01972e-05
6.73234e-05
1.22804e-05
6.64681e-05
1.43846e-05
6.54635e-05
1.65186e-05
6.43134e-05
1.86887e-05
6.29803e-05
2.09007e-05
6.14474e-05
2.31584e-05
5.97056e-05
2.54635e-05
5.7743e-05
2.78145e-05
5.55445e-05
3.02056e-05
5.30922e-05
3.26253e-05
5.03659e-05
3.50553e-05
4.73445e-05
3.7469e-05
4.40065e-05
3.98311e-05
4.03334e-05
4.20964e-05
3.63117e-05
4.42084e-05
3.19341e-05
4.61014e-05
2.71957e-05
4.7712e-05
2.21124e-05
1.66802e-05
4.89728e-05
2.36322e-06
7.48482e-05
3.89409e-06
6.68564e-05
5.65418e-06
6.45684e-05
7.53745e-06
6.57144e-05
9.45719e-06
6.54037e-05
1.13802e-05
6.45452e-05
1.33186e-05
6.35251e-05
1.52798e-05
6.23522e-05
1.72683e-05
6.09917e-05
1.92877e-05
5.94279e-05
2.1339e-05
5.76543e-05
2.34216e-05
5.56605e-05
2.55319e-05
5.34342e-05
2.76625e-05
5.09616e-05
2.98016e-05
4.82268e-05
3.19319e-05
4.52141e-05
3.40298e-05
4.19085e-05
3.60656e-05
3.82975e-05
3.80032e-05
3.4374e-05
3.98003e-05
3.01371e-05
4.1409e-05
2.5587e-05
4.27849e-05
2.07365e-05
1.55754e-05
4.38898e-05
2.33116e-06
7.2517e-05
3.65812e-06
6.55296e-05
5.21824e-06
6.30084e-05
6.93723e-06
6.39954e-05
8.69421e-06
6.36468e-05
1.045e-05
6.27894e-05
1.22173e-05
6.17578e-05
1.4002e-05
6.05674e-05
1.58078e-05
5.91858e-05
1.76362e-05
5.75995e-05
1.94862e-05
5.58043e-05
2.13553e-05
5.37915e-05
2.32382e-05
5.15513e-05
2.51271e-05
4.90727e-05
2.701e-05
4.63438e-05
2.88714e-05
4.33526e-05
3.06911e-05
4.00887e-05
3.24448e-05
3.65438e-05
3.4105e-05
3.27138e-05
3.56416e-05
2.86006e-05
3.70223e-05
2.42063e-05
3.82175e-05
1.95413e-05
1.45862e-05
3.92068e-05
2.29145e-06
7.02257e-05
3.43419e-06
6.4387e-05
4.7777e-06
6.16649e-05
6.31477e-06
6.24582e-05
7.8955e-06
6.2066e-05
9.47323e-06
6.12117e-05
1.10602e-05
6.01709e-05
1.26609e-05
5.89668e-05
1.42787e-05
5.75681e-05
1.59127e-05
5.59655e-05
1.75607e-05
5.41564e-05
1.92183e-05
5.21338e-05
2.08796e-05
4.98899e-05
2.25358e-05
4.74163e-05
2.41758e-05
4.47037e-05
2.57855e-05
4.17429e-05
2.73475e-05
3.85267e-05
2.88424e-05
3.50489e-05
3.02494e-05
3.13069e-05
3.15475e-05
2.73025e-05
3.27156e-05
2.30381e-05
3.37342e-05
1.85226e-05
1.373e-05
3.45903e-05
2.2289e-06
6.79969e-05
3.21061e-06
6.34053e-05
4.32478e-06
6.05506e-05
5.66053e-06
6.11224e-05
7.04802e-06
6.06785e-05
8.43315e-06
5.98267e-05
9.82664e-06
5.87775e-05
1.12313e-05
5.75621e-05
1.26501e-05
5.61493e-05
1.40797e-05
5.45359e-05
1.55169e-05
5.27192e-05
1.69559e-05
5.06947e-05
1.839e-05
4.84557e-05
1.98103e-05
4.5996e-05
2.12057e-05
4.33083e-05
2.25638e-05
4.0385e-05
2.3869e-05
3.72215e-05
2.51056e-05
3.38122e-05
2.62569e-05
3.01556e-05
2.73075e-05
2.62519e-05
2.82419e-05
2.21035e-05
2.90464e-05
1.7718e-05
1.30679e-05
2.97085e-05
2.13032e-06
6.58666e-05
2.97406e-06
6.25615e-05
3.8513e-06
5.96733e-05
4.96935e-06
6.00043e-05
6.14572e-06
5.95022e-05
7.32282e-06
5.86497e-05
8.50836e-06
5.75921e-05
9.70344e-06
5.6367e-05
1.09094e-05
5.49432e-05
1.21213e-05
5.33239e-05
1.33343e-05
5.15061e-05
1.45425e-05
4.94866e-05
1.57377e-05
4.72604e-05
1.69115e-05