/*--------------------------------*- C++ -*----------------------------------*\
| =========                 |                                                 |
| \\      /  F ield         | OpenFOAM: The Open Source CFD Toolbox           |
|  \\    /   O peration     | Version:  5.x                                   |
|   \\  /    A nd           | Web:      www.OpenFOAM.org                      |
|    \\/     M anipulation  |                                                 |
\*---------------------------------------------------------------------------*/
FoamFile
{
    version     2.0;
    format      ascii;
    class       volVectorField;
    location    "0.8";
    object      U;
}
// * * * * * * * * * * * * * * * * * * * * * * * * * * * * * * * * * * * * * //

dimensions      [0 1 -1 0 0 0 0];

internalField   nonuniform List<vector> 
2268
(
(-0.0229579 0.0103693 0)
(-0.0787004 0.0137937 0)
(-0.134104 0.0130571 0)
(-0.18827 0.0128865 0)
(-0.238981 0.0102445 0)
(-0.262744 0.00250516 0)
(-0.247796 -0.00470819 0)
(-0.217892 -0.00641083 0)
(-0.19278 -0.00402829 0)
(-0.180678 -0.00100439 0)
(-0.179293 0.00119975 0)
(-0.18462 0.00286854 0)
(-0.194618 0.0040603 0)
(-0.207659 0.00383905 0)
(-0.219464 -0.000795687 0)
(-0.21528 -0.00926849 0)
(-0.199897 -0.00743611 0)
(-0.221923 0.0152714 0)
(-0.297157 0.0202467 0)
(-0.330619 0.00291586 0)
(-0.264164 -0.0224431 0)
(-0.160073 -0.0372507 0)
(-0.0534004 -0.0313704 0)
(-0.0423595 0.0403052 0)
(-0.114163 0.0423248 0)
(-0.173066 0.0380835 0)
(-0.228286 0.0356246 0)
(-0.269339 0.0255616 0)
(-0.277213 0.00347216 0)
(-0.259271 -0.016912 0)
(-0.225456 -0.0222067 0)
(-0.196094 -0.0141856 0)
(-0.181314 -0.00472068 0)
(-0.178421 0.00147875 0)
(-0.181983 0.00531408 0)
(-0.187383 0.00772484 0)
(-0.193437 0.00857087 0)
(-0.20098 0.005787 0)
(-0.212533 0.000457899 0)
(-0.237803 0.00780086 0)
(-0.27816 0.0313066 0)
(-0.295507 0.0212046 0)
(-0.245442 -0.0161513 0)
(-0.175197 -0.0563716 0)
(-0.105616 -0.0833354 0)
(-0.0337839 -0.0771118 0)
(-0.0431668 0.0758464 0)
(-0.104841 0.0723258 0)
(-0.158454 0.0637594 0)
(-0.216278 0.0585604 0)
(-0.263863 0.039852 0)
(-0.279274 0.00291985 0)
(-0.262819 -0.0316035 0)
(-0.232872 -0.0403276 0)
(-0.204948 -0.0260419 0)
(-0.188352 -0.00913455 0)
(-0.183904 0.00112408 0)
(-0.183957 0.00584167 0)
(-0.182385 0.00784482 0)
(-0.176458 0.0083135 0)
(-0.168296 0.00767628 0)
(-0.16383 0.0092135 0)
(-0.165903 0.0200267 0)
(-0.17065 0.0313649 0)
(-0.152362 0.00477851 0)
(-0.0992264 -0.0427151 0)
(-0.0587697 -0.076478 0)
(-0.0326113 -0.102004 0)
(-0.00107985 -0.0958989 0)
(-0.0357126 0.10739 0)
(-0.0840024 0.099285 0)
(-0.134602 0.0883589 0)
(-0.19096 0.081783 0)
(-0.236041 0.0547994 0)
(-0.247653 0.00365717 0)
(-0.235069 -0.0428692 0)
(-0.222277 -0.053836 0)
(-0.210006 -0.0357037 0)
(-0.198438 -0.0134912 0)
(-0.194386 0.000385723 0)
(-0.19535 0.00546765 0)
(-0.194235 0.00534139 0)
(-0.186522 0.00276016 0)
(-0.171297 0.000195295 0)
(-0.149019 0.00216903 0)
(-0.116987 0.0121744 0)
(-0.0751496 0.0177495 0)
(-0.0268675 -0.00765307 0)
(0.0195073 -0.048701 0)
(0.0340886 -0.0752149 0)
(0.0150577 -0.102246 0)
(0.0228672 -0.0905735 0)
(-0.0245421 0.131745 0)
(-0.0576125 0.122992 0)
(-0.101095 0.111813 0)
(-0.14592 0.103366 0)
(-0.177518 0.0695627 0)
(-0.177468 0.00876308 0)
(-0.1718 -0.0444027 0)
(-0.187386 -0.0544427 0)
(-0.203964 -0.0363619 0)
(-0.207781 -0.0146439 0)
(-0.20729 0.00050264 0)
(-0.20847 0.00607733 0)
(-0.207718 0.00390332 0)
(-0.200503 -0.00250294 0)
(-0.185086 -0.00986194 0)
(-0.159381 -0.0137766 0)
(-0.117597 -0.0121286 0)
(-0.0592968 -0.0139804 0)
(-3.62318e-05 -0.0362198 0)
(0.0379927 -0.065671 0)
(0.0556217 -0.0760364 0)
(0.0245648 -0.0961073 0)
(0.0316532 -0.0800388 0)
(-0.0103552 0.145931 0)
(-0.0227206 0.137741 0)
(-0.0542042 0.126124 0)
(-0.0836378 0.113895 0)
(-0.0983693 0.0728066 0)
(-0.0867183 0.00793686 0)
(-0.0925329 -0.0360414 0)
(-0.141759 -0.0408626 0)
(-0.189226 -0.0248765 0)
(-0.21353 -0.00955491 0)
(-0.220872 0.00171898 0)
(-0.222801 0.00531199 0)
(-0.221246 0.000805462 0)
(-0.212739 -0.00866195 0)
(-0.195928 -0.0194877 0)
(-0.169849 -0.0288114 0)
(-0.130496 -0.0358171 0)
(-0.0770462 -0.044039 0)
(-0.0208454 -0.0606641 0)
(0.0130128 -0.0790488 0)
(0.0388457 -0.0775208 0)
(0.0160053 -0.0912487 0)
(0.0309613 -0.0704876 0)
(0.00490632 0.148477 0)
(0.0114266 0.149439 0)
(-0.00281219 0.141769 0)
(-0.0134274 0.126969 0)
(-0.00688916 0.0798775 0)
(0.0110144 0.0157145 0)
(-0.0264218 -0.0213591 0)
(-0.110621 -0.017841 0)
(-0.176779 -0.00465157 0)
(-0.216646 0.00126769 0)
(-0.234234 0.00640088 0)
(-0.238677 0.00725076 0)
(-0.23594 -0.000124926 0)
(-0.225277 -0.0136289 0)
(-0.205885 -0.0287715 0)
(-0.176999 -0.0430205 0)
(-0.135753 -0.0558336 0)
(-0.0822447 -0.0674263 0)
(-0.0263671 -0.0801947 0)
(0.0104916 -0.0902785 0)
(0.0354775 -0.0801937 0)
(0.0246221 -0.088044 0)
(0.0303803 -0.0569075 0)
(0.0162115 0.133425 0)
(0.0524704 0.142749 0)
(0.0741457 0.131028 0)
(0.0893627 0.109723 0)
(0.102289 0.0645134 0)
(0.0761597 0.0233667 0)
(-0.0221146 0.0215735 0)
(-0.11929 0.0283346 0)
(-0.176805 0.0274796 0)
(-0.21492 0.0197877 0)
(-0.23972 0.012541 0)
(-0.251779 0.00494737 0)
(-0.251375 -0.00651666 0)
(-0.237792 -0.0231672 0)
(-0.211497 -0.0426166 0)
(-0.175978 -0.0626343 0)
(-0.128089 -0.0832528 0)
(-0.0676214 -0.100102 0)
(-0.00502252 -0.10873 0)
(0.0374483 -0.107014 0)
(0.0578186 -0.086239 0)
(0.0516949 -0.0826962 0)
(0.0402826 -0.0393388 0)
(-0.0596407 0.039608 0)
(-0.411054 0.0647865 0)
(-0.58438 0.0110171 0)
(-0.400738 -0.0568081 0)
(-0.114126 -0.0732178 0)
(0.0993992 -0.0241354 0)
(0.102668 0.0161157 0)
(-0.0513718 0.0185094 0)
(-0.455401 0.111298 0)
(-0.965308 0.0914874 0)
(-0.632553 -0.0304178 0)
(-0.139432 -0.0480766 0)
(-0.0636926 0.03731 0)
(-0.105125 0.01557 0)
(-0.123594 -0.0429414 0)
(-0.138042 -0.0587776 0)
(-0.20558 0.0297838 0)
(-0.315684 0.104196 0)
(-0.176106 -0.0731657 0)
(-0.198382 0.157654 0)
(-0.533489 0.160785 0)
(-0.503648 0.0040774 0)
(-0.314284 -0.15773 0)
(-0.0453724 -0.195848 0)
(0.0881886 -0.0631986 0)
(0.0438826 0.0696213 0)
(-0.525708 0.22316 0)
(-1.14569 0.277738 0)
(-0.959062 -0.00877878 0)
(-0.00235104 -0.354823 0)
(0.214277 -0.221838 0)
(0.334137 -0.0520132 0)
(0.396277 0.0146509 0)
(0.478958 0.0590728 0)
(0.504991 0.0933593 0)
(0.101349 0.0559942 0)
(-0.290081 -0.0710047 0)
(0.0722583 -0.242713 0)
(-0.219396 0.283671 0)
(-0.437228 0.219344 0)
(-0.367364 -0.0362283 0)
(-0.238828 -0.246488 0)
(-0.0314764 -0.282625 0)
(-0.00810027 -0.0518418 0)
(-0.190148 0.244906 0)
(-0.963788 0.44701 0)
(-1.25538 0.279941 0)
(-0.34168 -0.327813 0)
(0.0228227 -0.54444 0)
(0.125354 -0.202311 0)
(0.160196 -0.0268985 0)
(0.23174 -0.0329618 0)
(0.385562 -0.0608365 0)
(0.641119 0.0498204 0)
(0.66596 0.227332 0)
(0.522766 0.232741 0)
(0.54201 -0.0932791 0)
(-0.186506 0.393716 0)
(-0.310491 0.259896 0)
(-0.281549 -0.0561239 0)
(-0.168356 -0.315702 0)
(-0.0796817 -0.324874 0)
(-0.172942 0.0437745 0)
(-0.551701 0.473269 0)
(-1.21304 0.595713 0)
(-0.951313 0.0851734 0)
(-0.125402 -0.544921 0)
(-0.0620931 -0.624856 0)
(0.0449696 -0.256782 0)
(0.0216208 -0.0611651 0)
(0.0716717 -0.0976679 0)
(0.267151 -0.116207 0)
(0.465507 -0.0204061 0)
(0.628557 0.136874 0)
(0.658602 0.25481 0)
(0.625449 0.0429809 0)
(-0.134768 0.473355 0)
(-0.191366 0.29355 0)
(-0.226016 -0.0673806 0)
(-0.0998545 -0.359153 0)
(-0.174922 -0.296119 0)
(-0.436657 0.213331 0)
(-0.940602 0.697005 0)
(-1.34745 0.638366 0)
(-0.598078 -0.155295 0)
(-0.0829157 -0.690965 0)
(-0.123061 -0.647672 0)
(-0.0279782 -0.279856 0)
(-0.109587 -0.0597864 0)
(-0.100209 -0.145798 0)
(0.116993 -0.233619 0)
(0.366986 -0.126981 0)
(0.482489 0.0734888 0)
(0.559149 0.262095 0)
(0.75569 0.288711 0)
(-0.0757293 0.521847 0)
(-0.043637 0.314811 0)
(-0.110671 -0.0529943 0)
(-0.0188322 -0.34378 0)
(-0.28783 -0.184518 0)
(-0.719469 0.426162 0)
(-1.19157 0.836432 0)
(-1.22212 0.473603 0)
(-0.339115 -0.398016 0)
(-0.185883 -0.786297 0)
(-0.259192 -0.677319 0)
(-0.143656 -0.215696 0)
(-0.240214 -0.0736327 0)
(-0.223378 -0.233852 0)
(-0.106929 -0.367452 0)
(0.0360322 -0.244074 0)
(0.124886 -0.0231034 0)
(0.0638686 0.173289 0)
(0.650628 0.502607 0)
(-0.0165481 0.51826 0)
(0.0907941 0.333453 0)
(0.0416752 -0.0306151 0)
(0.05555 -0.272915 0)
(-0.382915 -0.0224537 0)
(-0.948348 0.634197 0)
(-1.32303 0.915322 0)
(-0.967185 0.237314 0)
(-0.244372 -0.594874 0)
(-0.354387 -0.809251 0)
(-0.40273 -0.649023 0)
(-0.351019 -0.142812 0)
(-0.326843 0.0308371 0)
(-0.335053 -0.219569 0)
(-0.456056 -0.319831 0)
(-1.12543 -0.0557362 0)
(-1.63109 0.121873 0)
(-0.698285 0.306078 0)
(0.321086 0.589174 0)
(0.0225083 0.47536 0)
(0.157039 0.327979 0)
(0.169618 -0.017779 0)
(0.0916036 -0.173792 0)
(-0.458461 0.193892 0)
(-1.10675 0.825475 0)
(-1.3229 0.893187 0)
(-0.745198 0.0102937 0)
(-0.32069 -0.685593 0)
(-0.522478 -0.787859 0)
(-0.546359 -0.543138 0)
(-0.601921 -0.21791 0)
(-0.382895 -0.063146 0)
(-0.47403 -0.0828836 0)
(-0.933625 -0.03508 0)
(-2.09656 0.106639 0)
(-1.94975 -0.185523 0)
(-1.14913 -0.256626 0)
(-0.400366 0.129997 0)
(0.0257939 0.0773076 0)
(0.0315236 0.0977902 0)
(0.00056144 0.1215 0)
(-0.0503544 0.128195 0)
(-0.120846 0.110468 0)
(-0.177449 0.0892095 0)
(-0.202876 0.0702839 0)
(-0.211078 0.0504381 0)
(-0.214023 0.0414998 0)
(-0.224058 0.0386803 0)
(-0.240306 0.0337381 0)
(-0.253712 0.0176328 0)
(-0.250789 -0.0105855 0)
(-0.223965 -0.0432486 0)
(-0.191847 -0.0703916 0)
(-0.165076 -0.0962933 0)
(-0.127506 -0.128313 0)
(-0.072837 -0.149423 0)
(-0.00875713 -0.147731 0)
(0.0427788 -0.129764 0)
(0.0710748 -0.0947889 0)
(0.0718104 -0.0721562 0)
(0.053897 -0.0279443 0)
(-0.404769 0.134668 0)
(-0.348122 0.182043 0)
(-0.480667 0.189448 0)
(-0.510296 0.177691 0)
(-0.516868 0.124836 0)
(-0.493288 0.0701029 0)
(-0.463824 0.0447352 0)
(-0.42988 0.0383825 0)
(-0.38782 0.036417 0)
(-0.336792 0.0356054 0)
(-0.297678 0.0305124 0)
(-0.278057 0.00942309 0)
(-0.265623 -0.0261957 0)
(-0.267721 -0.0539609 0)
(-0.287343 -0.0661449 0)
(-0.313009 -0.0866288 0)
(-0.32382 -0.125562 0)
(-0.274979 -0.161286 0)
(-0.167119 -0.173955 0)
(-0.0472422 -0.154503 0)
(0.0236056 -0.115079 0)
(0.0334089 -0.0792201 0)
(0.0459653 -0.032756 0)
(-0.996591 0.916845 0)
(-1.30554 0.292951 0)
(-1.46985 0.24133 0)
(-1.51021 0.157833 0)
(-1.5003 0.0927607 0)
(-1.45853 0.0350137 0)
(-1.44021 -0.00350868 0)
(-1.39111 -0.0462617 0)
(-1.31361 -0.0729897 0)
(-1.20621 -0.0413393 0)
(-1.09064 -0.0125462 0)
(-1.00129 -0.0229477 0)
(-0.938678 -0.0507077 0)
(-0.907489 -0.0553024 0)
(-0.942245 -0.0418749 0)
(-1.00771 -0.0604351 0)
(-0.987713 -0.171094 0)
(-0.795095 -0.357796 0)
(-0.458902 -0.43495 0)
(-0.1212 -0.357194 0)
(0.163582 -0.181124 0)
(0.0404099 -0.114597 0)
(0.00521923 -0.0692846 0)
(-0.516 1.78741 0)
(-0.755852 0.813905 0)
(-1.10876 0.49748 0)
(-1.35471 0.298476 0)
(-1.55987 0.160067 0)
(-1.70602 0.0401252 0)
(-1.78295 -0.0386986 0)
(-1.81895 -0.103221 0)
(-1.85021 -0.143478 0)
(-1.7412 -0.11799 0)
(-1.60084 -0.118811 0)
(-1.51775 -0.142557 0)
(-1.50645 -0.149902 0)
(-1.63342 -0.0588902 0)
(-1.90688 0.0840466 0)
(-1.83516 -0.0600075 0)
(-1.47789 -0.479472 0)
(-1.15016 -0.782423 0)
(-0.902697 -0.91343 0)
(-0.718803 -0.848736 0)
(-0.0722877 -0.279861 0)
(0.398301 -0.0250526 0)
(0.214595 0.0528617 0)
(-0.223685 2.20859 0)
(-0.292578 1.22023 0)
(-0.60548 0.785081 0)
(-0.737478 0.521993 0)
(-0.807728 0.362847 0)
(-0.844842 0.255093 0)
(-0.903897 0.148226 0)
(-1.00503 -0.0194718 0)
(-1.11599 -0.150455 0)
(-1.23978 -0.141251 0)
(-1.50245 -0.197502 0)
(-1.91619 -0.051643 0)
(-2.18611 0.130692 0)
(-2.20004 0.245889 0)
(-2.063 0.0547026 0)
(-1.7442 -0.434606 0)
(-1.4759 -0.809929 0)
(-1.31239 -0.94301 0)
(-1.21527 -0.990545 0)
(-1.17065 -0.980303 0)
(-1.11613 -0.678906 0)
(-0.792919 -0.171825 0)
(-0.743475 0.338727 0)
(-0.0655951 2.29159 0)
(-0.0420486 1.389 0)
(-0.285484 0.938425 0)
(-0.303891 0.588584 0)
(-0.287727 0.335531 0)
(-0.253051 0.200644 0)
(-0.250245 0.13881 0)
(-0.304488 0.125328 0)
(-0.440063 0.155062 0)
(-0.66721 0.248406 0)
(-0.916954 0.323916 0)
(-1.16597 0.242989 0)
(-1.40202 -0.0101847 0)
(-1.6218 -0.0655713 0)
(-1.74984 -0.00850956 0)
(-1.64941 -0.473394 0)
(-1.55941 -1.02725 0)
(-1.47467 -1.10946 0)
(-1.38251 -1.10135 0)
(-1.31932 -1.042 0)
(-1.2722 -0.840689 0)
(-1.18537 -0.2314 0)
(-1.00857 0.215291 0)
(0.0287071 2.21513 0)
(0.0940141 1.49205 0)
(-0.139441 0.991234 0)
(-0.0907809 0.582419 0)
(-0.0967631 0.270476 0)
(-0.0620954 0.152524 0)
(-0.0638547 0.129893 0)
(-0.104396 0.158147 0)
(-0.167066 0.240841 0)
(-0.283279 0.34457 0)
(-0.425898 0.446043 0)
(-0.554221 0.512126 0)
(-0.717898 0.453257 0)
(-0.911101 0.317868 0)
(-1.07907 0.0747488 0)
(-1.20846 -0.432315 0)
(-1.40111 -0.941978 0)
(-1.4912 -1.1792 0)
(-1.47751 -1.18509 0)
(-1.43103 -1.09086 0)
(-1.37786 -0.896873 0)
(-1.30616 -0.410139 0)
(-1.08104 0.0704757 0)
(0.106078 2.0582 0)
(0.216901 1.64373 0)
(-0.0360277 1.02574 0)
(0.0157626 0.561127 0)
(-0.00624535 0.249912 0)
(0.0115586 0.147404 0)
(0.00180875 0.170659 0)
(-0.0447702 0.224708 0)
(-0.09103 0.309428 0)
(-0.120546 0.421669 0)
(-0.167925 0.50672 0)
(-0.208699 0.559713 0)
(-0.271688 0.559679 0)
(-0.377752 0.476713 0)
(-0.529228 0.270665 0)
(-0.79515 -0.153287 0)
(-1.10021 -0.680729 0)
(-1.33077 -1.06122 0)
(-1.42833 -1.18032 0)
(-1.44944 -1.12059 0)
(-1.42881 -0.946086 0)
(-1.36918 -0.636249 0)
(-1.18055 -0.0621274 0)
(0.182023 1.79262 0)
(0.367228 1.78393 0)
(0.183323 1.14462 0)
(0.166899 0.593958 0)
(0.140661 0.261919 0)
(0.107292 0.155017 0)
(0.070457 0.207134 0)
(0.0184712 0.285207 0)
(-0.0408472 0.354858 0)
(-0.0578676 0.451937 0)
(-0.0596339 0.537657 0)
(-0.0580273 0.580491 0)
(-0.0573643 0.585712 0)
(-0.0855304 0.545124 0)
(-0.166638 0.436455 0)
(-0.388341 0.154963 0)
(-0.777372 -0.364159 0)
(-1.096 -0.834351 0)
(-1.29365 -1.08686 0)
(-1.37176 -1.09592 0)
(-1.38994 -0.957713 0)
(-1.36255 -0.700242 0)
(-1.23199 -0.247031 0)
(0.218028 1.41111 0)
(0.482168 1.75738 0)
(0.446021 1.26122 0)
(0.402945 0.689471 0)
(0.336519 0.321094 0)
(0.236904 0.207674 0)
(0.150761 0.263473 0)
(0.0855854 0.346236 0)
(0.0217808 0.397629 0)
(-0.0115885 0.458985 0)
(-0.00988623 0.527612 0)
(0.00451758 0.569098 0)
(0.0251715 0.584481 0)
(0.0325698 0.575399 0)
(0.00557435 0.537519 0)
(-0.105358 0.411052 0)
(-0.402555 0.0435831 0)
(-0.811999 -0.521724 0)
(-1.11247 -0.901868 0)
(-1.26949 -1.0191 0)
(-1.3212 -0.95366 0)
(-1.3095 -0.7455 0)
(-1.25206 -0.48843 0)
(0.160251 1.03018 0)
(0.465456 1.55305 0)
(0.56658 1.24932 0)
(0.563476 0.758829 0)
(0.475828 0.420717 0)
(0.334846 0.315197 0)
(0.216631 0.35286 0)
(0.141195 0.415486 0)
(0.0826077 0.449397 0)
(0.040052 0.47763 0)
(0.0290899 0.516415 0)
(0.039051 0.545351 0)
(0.0560332 0.562758 0)
(0.068521 0.573728 0)
(0.0641389 0.57502 0)
(0.0263865 0.545517 0)
(-0.129173 0.360754 0)
(-0.485376 -0.109653 0)
(-0.886222 -0.629707 0)
(-1.15956 -0.885535 0)
(-1.26417 -0.907739 0)
(-1.26436 -0.756662 0)
(-1.21581 -0.493371 0)
(0.034145 0.800071 0)
(0.317146 1.29302 0)
(0.495427 1.12861 0)
(0.550095 0.779032 0)
(0.482265 0.528861 0)
(0.352739 0.442219 0)
(0.244257 0.451247 0)
(0.176141 0.48218 0)
(0.128973 0.499313 0)
(0.0906894 0.50764 0)
(0.0712107 0.521587 0)
(0.0707425 0.535409 0)
(0.0764212 0.548963 0)
(0.0811995 0.566162 0)
(0.0803034 0.582758 0)
(0.0707557 0.59506 0)
(0.0140512 0.540789 0)
(-0.193538 0.268625 0)
(-0.581849 -0.241339 0)
(-0.966194 -0.663654 0)
(-1.20263 -0.821366 0)
(-1.24713 -0.758442 0)
(-1.19914 -0.552719 0)
(-0.0577283 0.725751 0)
(0.146755 1.05521 0)
(0.337743 0.977503 0)
(0.423213 0.770196 0)
(0.392022 0.612503 0)
(0.309062 0.543541 0)
(0.237386 0.528107 0)
(0.19016 0.532601 0)
(0.15804 0.536496 0)
(0.130858 0.535287 0)
(0.11176 0.535174 0)
(0.103632 0.538673 0)
(0.0994266 0.549275 0)
(0.0952891 0.567085 0)
(0.0900654 0.586491 0)
(0.0843082 0.609034 0)
(0.0691236 0.613426 0)
(-0.0196662 0.50091 0)
(-0.261788 0.169187 0)
(-0.668092 -0.317017 0)
(-1.0232 -0.661309 0)
(-1.18106 -0.724258 0)
(-1.16561 -0.613342 0)
(-0.069813 0.726773 0)
(0.0503826 0.87687 0)
(0.204762 0.844223 0)
(0.28517 0.741164 0)
(0.284797 0.652375 0)
(0.249837 0.598807 0)
(0.215339 0.572089 0)
(0.190066 0.562713 0)
(0.172285 0.5591 0)
(0.156716 0.554156 0)
(0.143056 0.548718 0)
(0.132574 0.547704 0)
(0.123355 0.556827 0)
(0.114546 0.574415 0)
(0.105639 0.593701 0)
(0.0967668 0.61591 0)
(0.0899239 0.637052 0)
(0.0574929 0.608615 0)
(-0.0608267 0.445256 0)
(-0.39016 0.0872745 0)
(-0.764737 -0.350797 0)
(-0.997063 -0.632824 0)
(-1.2168 -0.716498 0)
(-0.0406655 0.74472 0)
(0.0287283 0.76681 0)
(0.128622 0.745427 0)
(0.18948 0.702948 0)
(0.206343 0.656457 0)
(0.20226 0.616735 0)
(0.192322 0.589909 0)
(0.182972 0.576497 0)
(0.176011 0.570011 0)
(0.169565 0.564395 0)
(0.162274 0.558794 0)
(0.153669 0.557636 0)
(0.144389 0.566314 0)
(0.135803 0.583453 0)
(0.127462 0.602962 0)
(0.118111 0.624117 0)
(0.11103 0.647892 0)
(0.0956102 0.65649 0)
(0.0487118 0.613383 0)
(-0.194725 0.380967 0)
(-0.538349 -0.0248772 0)
(-0.716938 -0.280713 0)
(-0.965423 -0.414386 0)
(-0.0104228 0.743808 0)
(0.0351134 0.705599 0)
(0.0933989 0.680765 0)
(0.137233 0.667497 0)
(0.159892 0.643207 0)
(0.170104 0.614749 0)
(0.172975 0.592554 0)
(0.17323 0.579645 0)
(0.173441 0.572695 0)
(0.173315 0.567814 0)
(0.171518 0.564232 0)
(0.167083 0.564997 0)
(0.161344 0.573834 0)
(0.156549 0.59018 0)
(0.152618 0.610094 0)
(0.147654 0.63138 0)
(0.14383 0.655522 0)
(0.13716 0.681134 0)
(0.120166 0.716186 0)
(-0.0160944 0.644079 0)
(-0.366054 0.232265 0)
(-0.525233 -0.0807202 0)
(-0.783317 -0.129451 0)
(0.00592926 0.724135 0)
(0.0409387 0.665163 0)
(0.0780486 0.638799 0)
(0.110664 0.638011 0)
(0.133299 0.624642 0)
(0.148573 0.604475 0)
(0.157502 0.587422 0)
(0.163299 0.576383 0)
(0.168132 0.569972 0)
(0.172294 0.566236 0)
(0.174909 0.564865 0)
(0.175377 0.56761 0)
(0.174973 0.576532 0)
(0.175813 0.591646 0)
(0.178312 0.611247 0)
(0.180955 0.632797 0)
(0.184734 0.656618 0)
(0.190944 0.689492 0)
(0.188178 0.76571 0)
(0.169508 0.844341 0)
(-0.154903 0.512044 0)
(-0.345721 0.0996608 0)
(-0.449156 0.0949007 0)
(0.0114417 0.698078 0)
(0.0411878 0.632841 0)
(0.0696043 0.608404 0)
(0.0956546 0.612987 0)
(0.116779 0.605349 0)
(0.133475 0.590957 0)
(0.145425 0.578159 0)
(0.154637 0.569186 0)
(0.162622 0.563687 0)
(0.169891 0.560981 0)
(0.176141 0.561088 0)
(0.181331 0.564894 0)
(0.186508 0.573354 0)
(0.193276 0.586746 0)
(0.202435 0.604824 0)
(0.213411 0.62555 0)
(0.226018 0.647462 0)
(0.245774 0.679951 0)
(0.259011 0.764944 0)
(0.313891 0.938692 0)
(0.130745 0.823296 0)
(-0.193673 0.25252 0)
(-0.345767 0.145568 0)
(0.0124776 0.672228 0)
(0.0387156 0.604926 0)
(0.0632783 0.583555 0)
(0.0856839 0.59087 0)
(0.10549 0.586506 0)
(0.122527 0.576013 0)
(0.136233 0.566408 0)
(0.14779 0.559292 0)
(0.15817 0.554742 0)
(0.167959 0.55273 0)
(0.177334 0.553435 0)
(0.186647 0.557279 0)
(0.196739 0.564662 0)
(0.208733 0.575906 0)
(0.223601 0.591361 0)
(0.241708 0.60982 0)
(0.262178 0.628493 0)
(0.290439 0.655117 0)
(0.321018 0.726608 0)
(0.404174 0.924488 0)
(0.413446 1.04502 0)
(0.115099 0.572233 0)
(-0.266939 0.142326 0)
(0.0123607 0.647832 0)
(0.0358981 0.579874 0)
(0.0581784 0.561655 0)
(0.0784411 0.570602 0)
(0.0973261 0.568178 0)
(0.114426 0.560278 0)
(0.129282 0.552942 0)
(0.142574 0.547304 0)
(0.15493 0.543533 0)
(0.166924 0.541839 0)
(0.179 0.542449 0)
(0.191692 0.545579 0)
(0.205703 0.551415 0)
(0.221858 0.560213 0)
(0.241112 0.572368 0)
(0.264422 0.587405 0)
(0.291258 0.602513 0)
(0.323997 0.621261 0)
(0.367131 0.669425 0)
(0.456471 0.829094 0)
(0.60087 1.07221 0)
(0.568354 0.945609 0)
(0.203471 0.448362 0)
(0.0119721 0.624812 0)
(0.0334684 0.556967 0)
(0.0540709 0.541565 0)
(0.0729699 0.551511 0)
(0.0911988 0.550239 0)
(0.108266 0.544038 0)
(0.123885 0.53823 0)
(0.13847 0.533631 0)
(0.152455 0.530359 0)
(0.166347 0.528645 0)
(0.180665 0.528705 0)
(0.195981 0.530674 0)
(0.21292 0.534658 0)
(0.232181 0.540818 0)
(0.254631 0.549373 0)
(0.281407 0.560201 0)
(0.312848 0.571478 0)
(0.349172 0.58293 0)
(0.396545 0.607316 0)
(0.480172 0.698101 0)
(0.662926 0.909175 0)
(0.849785 1.02 0)
(0.829363 0.760594 0)
(0.0114475 0.603061 0)
(0.0314283 0.535792 0)
(0.0506664 0.522714 0)
(0.0686712 0.533227 0)
(0.0863895 0.532624 0)
(0.103362 0.527503 0)
(0.119452 0.522654 0)
(0.134946 0.518669 0)
(0.150176 0.515584 0)
(0.16557 0.513571 0)
(0.181613 0.512804 0)
(0.198843 0.513375 0)
(0.217833 0.515334 0)
(0.239237 0.518735 0)
(0.263837 0.523592 0)
(0.292676 0.529758 0)
(0.326612 0.536343 0)
(0.365713 0.541578 0)
(0.412324 0.547868 0)
(0.481044 0.578224 0)
(0.627382 0.678204 0)
(0.862829 0.804309 0)
(1.05366 0.738881 0)
(0.0108682 0.582469 0)
(0.0296712 0.51605 0)
(0.0477399 0.504777 0)
(0.0651257 0.515547 0)
(0.0823964 0.51531 0)
(0.0992147 0.510845 0)
(0.115541 0.506534 0)
(0.1316 0.502811 0)
(0.147671 0.499633 0)
(0.164111 0.497109 0)
(0.181339 0.495354 0)
(0.199833 0.494416 0)
(0.220109 0.494277 0)
(0.24277 0.494886 0)
(0.268509 0.496093 0)
(0.298174 0.49758 0)
(0.332617 0.498782 0)
(0.372414 0.49825 0)
(0.417364 0.493868 0)
(0.472446 0.490699 0)
(0.563488 0.50396 0)
(0.732762 0.544887 0)
(0.927432 0.503034 0)
(0.0103064 0.562926 0)
(0.0281166 0.497528 0)
(0.0451516 0.487576 0)
(0.0620466 0.498371 0)
(0.0788797 0.498305 0)
(0.0954774 0.494204 0)
(0.111844 0.490138 0)
(0.128171 0.486421 0)
(0.144706 0.482947 0)
(0.161746 0.479767 0)
(0.179649 0.47694 0)
(0.198825 0.474467 0)
(0.21972 0.472263 0)
(0.242856 0.470183 0)
(0.268809 0.467974 0)
(0.298234 0.465201 0)
(0.331774 0.461252 0)
(0.370168 0.455236 0)
(0.413147 0.444889 0)
(0.461342 0.429113 0)
(0.520363 0.408036 0)
(0.615722 0.390443 0)
(0.741263 0.330056 0)
(0.00979294 0.544341 0)
(0.0267056 0.480081 0)
(0.0428 0.471028 0)
(0.0592379 0.48167 0)
(0.0756109 0.481642 0)
(0.0919108 0.477711 0)
(0.108151 0.473691 0)
(0.124498 0.469813 0)
(0.141173 0.465915 0)
(0.158427 0.462003 0)
(0.176561 0.45809 0)
(0.19592 0.454132 0)
(0.216872 0.449995 0)
(0.239839 0.445471 0)
(0.265275 0.440249 0)
(0.29366 0.433872 0)
(0.325452 0.425672 0)
(0.361194 0.41492 0)
(0.401115 0.400199 0)
(0.445195 0.379816 0)
(0.492945 0.35065 0)
(0.551846 0.314772 0)
(0.623526 0.252689 0)
(0.00933417 0.526642 0)
(0.0253946 0.463613 0)
(0.0406064 0.455109 0)
(0.0565683 0.465462 0)
(0.0724377 0.465379 0)
(0.088355 0.461488 0)
(0.104319 0.457386 0)
(0.120481 0.453243 0)
(0.137031 0.448859 0)
(0.154182 0.444199 0)
(0.172186 0.439242 0)
(0.191321 0.43391 0)
(0.211881 0.428042 0)
(0.234192 0.421401 0)
(0.258587 0.413652 0)
(0.285399 0.404353 0)
(0.314936 0.392869 0)
(0.347466 0.378454 0)
(0.383248 0.360092 0)
(0.42228 0.336492 0)
(0.463565 0.304996 0)
(0.507523 0.265073 0)
(0.552154 0.207528 0)
(0.00892886 0.50977 0)
(0.0241523 0.44806 0)
(0.0385193 0.43983 0)
(0.0539576 0.449789 0)
(0.0692653 0.449589 0)
(0.084711 0.445652 0)
(0.100265 0.44139 0)
(0.116066 0.436928 0)
(0.132275 0.432038 0)
(0.149071 0.426656 0)
(0.166657 0.420738 0)
(0.18525 0.414184 0)
(0.205081 0.406822 0)
(0.22638 0.398409 0)
(0.249381 0.388612 0)
(0.274287 0.377014 0)
(0.301269 0.363056 0)
(0.330388 0.346024 0)
(0.361649 0.325052 0)
(0.39488 0.299092 0)
(0.429196 0.266428 0)
(0.463755 0.226306 0)
(0.495211 0.174036 0)
(0.00857088 0.493679 0)
(0.0229602 0.433383 0)
(0.0365096 0.425215 0)
(0.0513643 0.434709 0)
(0.0660443 0.434349 0)
(0.0809309 0.430314 0)
(0.095956 0.425853 0)
(0.111246 0.421048 0)
(0.126937 0.415665 0)
(0.143174 0.409616 0)
(0.160116 0.402845 0)
(0.177929 0.395238 0)
(0.196782 0.386627 0)
(0.21683 0.376775 0)
(0.238216 0.365374 0)
(0.261043 0.352041 0)
(0.285363 0.336303 0)
(0.311112 0.317558 0)
(0.338094 0.295106 0)
(0.36597 0.268132 0)
(0.393856 0.235595 0)
(0.420965 0.197135 0)
(0.444548 0.150364 0)
(0.00825096 0.478328 0)
(0.0218137 0.419562 0)
(0.0345581 0.411291 0)
(0.0487723 0.420282 0)
(0.062759 0.419737 0)
(0.0770063 0.415575 0)
(0.0913992 0.410899 0)
(0.106052 0.405758 0)
(0.12108 0.399915 0)
(0.136596 0.393273 0)
(0.152722 0.385764 0)
(0.169578 0.377278 0)
(0.187282 0.367653 0)
(0.20593 0.356672 0)
(0.225593 0.344063 0)
(0.246298 0.329492 0)
(0.268013 0.312572 0)
(0.290606 0.292835 0)
(0.3138 0.269762 0)
(0.337185 0.242783 0)
(0.359929 0.211262 0)
(0.381339 0.175099 0)
(0.399386 0.133071 0)
(0.00796428 0.463671 0)
(0.0207223 0.406597 0)
(0.0326403 0.398075 0)
(0.0461769 0.406567 0)
(0.059413 0.405819 0)
(0.0729547 0.401524 0)
(0.086631 0.396637 0)
(0.100545 0.391183 0)
(0.114796 0.384929 0)
(0.129467 0.377775 0)
(0.144647 0.369649 0)
(0.160423 0.360448 0)
(0.176869 0.350026 0)
(0.194037 0.33819 0)
(0.211945 0.324709 0)
(0.230573 0.309305 0)
(0.249834 0.291669 0)
(0.26956 0.271454 0)
(0.289458 0.248289 0)
(0.309117 0.221798 0)
(0.327818 0.1916 0)
(0.344965 0.157713 0)
(0.359081 0.119553 0)
(0.00772356 0.449643 0)
(0.0197112 0.394524 0)
(0.0307174 0.385586 0)
(0.043574 0.393609 0)
(0.0560141 0.39265 0)
(0.0688038 0.388227 0)
(0.0816999 0.383146 0)
(0.0948001 0.377418 0)
(0.108192 0.370813 0)
(0.121929 0.363234 0)
(0.136077 0.354608 0)
(0.150694 0.344844 0)
(0.165822 0.333814 0)
(0.18148 0.321355 0)
(0.197656 0.307274 0)
(0.214294 0.29135 0)
(0.231283 0.273339 0)
(0.24844 0.25299 0)
(0.265484 0.23005 0)
(0.282038 0.204286 0)
(0.297516 0.175482 0)
(0.311442 0.143724 0)
(0.322747 0.108779 0)
(0.00756837 0.436146 0)
(0.0188179 0.383433 0)
(0.0287434 0.373848 0)
(0.040957 0.381434 0)
(0.052564 0.38026 0)
(0.0645768 0.375731 0)
(0.0766492 0.370485 0)
(0.0888867 0.364528 0)
(0.101367 0.357637 0)
(0.114119 0.349717 0)
(0.127188 0.340703 0)
(0.140613 0.330514 0)
(0.15441 0.319041 0)
(0.168576 0.30615 0)
(0.183079 0.291685 0)
(0.197846 0.275473 0)
(0.212756 0.25733 0)
(0.227632 0.237079 0)
(0.242218 0.214558 0)
(0.256193 0.189636 0)
(0.269087 0.162205 0)
(0.280532 0.132367 0)
(0.289753 0.100057 0)
(0.00754711 0.423044 0)
(0.0180691 0.373437 0)
(0.0267064 0.362921 0)
(0.0383215 0.370047 0)
(0.0490541 0.368666 0)
(0.0602816 0.364064 0)
(0.0714988 0.358688 0)
(0.0828461 0.352548 0)
(0.0943913 0.345434 0)
(0.106139 0.337254 0)
(0.118123 0.327951 0)
(0.130365 0.317457 0)
(0.142861 0.305681 0)
(0.155595 0.292514 0)
(0.168523 0.277834 0)
(0.181566 0.261508 0)
(0.194606 0.243402 0)
(0.207481 0.223396 0)
(0.219972 0.201394 0)
(0.231815 0.177335 0)
(0.242649 0.151175 0)
(0.252187 0.123008 0)
(0.259883 0.092822 0)
(0.00767117 0.410202 0)
(0.0174486 0.364606 0)
(0.0246571 0.352906 0)
(0.0356624 0.359462 0)
(0.0454664 0.357881 0)
(0.0559015 0.353246 0)
(0.0662309 0.347774 0)
(0.0766718 0.341495 0)
(0.0872724 0.334213 0)
(0.098019 0.32584 0)
(0.108937 0.316334 0)
(0.120031 0.305635 0)
(0.131288 0.293668 0)
(0.142679 0.280348 0)
(0.154156 0.26558 0)
(0.16564 0.249265 0)
(0.177025 0.231308 0)
(0.188168 0.211628 0)
(0.198889 0.190175 0)
(0.208983 0.166932 0)
(0.218187 0.141892 0)
(0.226288 0.115134 0)
(0.232918 0.0866305 0)
(0.00788878 0.397534 0)
(0.0168946 0.356916 0)
(0.0226646 0.343918 0)
(0.0329576 0.349719 0)
(0.0417676 0.347943 0)
(0.0513867 0.343306 0)
(0.0607825 0.337765 0)
(0.0702963 0.33138 0)
(0.0799386 0.323972 0)
(0.0896838 0.31546 0)
(0.0995529 0.305815 0)
(0.109538 0.294987 0)
(0.119614 0.282915 0)
(0.129747 0.269534 0)
(0.139886 0.25477 0)
(0.14996 0.238549 0)
(0.159872 0.220806 0)
(0.169502 0.201488 0)
(0.178707 0.180568 0)
(0.187335 0.158054 0)
(0.19521 0.133957 0)
(0.202181 0.108342 0)
(0.20801 0.0811313 0)
(0.00811286 0.385039 0)
(0.016328 0.350279 0)
(0.020744 0.336061 0)
(0.0301628 0.340904 0)
(0.037905 0.338913 0)
(0.0466574 0.334291 0)
(0.0550524 0.328697 0)
(0.0636009 0.32223 0)
(0.0722484 0.314722 0)
(0.0809675 0.306109 0)
(0.089777 0.296373 0)
(0.0986546 0.285471 0)
(0.10757 0.273357 0)
(0.116484 0.25998 0)
(0.125347 0.245283 0)
(0.13409 0.229212 0)
(0.142631 0.211719 0)
(0.150867 0.192769 0)
(0.158686 0.172346 0)
(0.165977 0.150464 0)
(0.17263 0.127138 0)
(0.178536 0.102424 0)
(0.183534 0.0761939 0)
(0.00826656 0.372802 0)
(0.0156736 0.344578 0)
(0.01885 0.329416 0)
(0.0272324 0.333126 0)
(0.0338221 0.330878 0)
(0.0416318 0.326275 0)
(0.0489399 0.320634 0)
(0.0564646 0.314102 0)
(0.0640521 0.306511 0)
(0.0716884 0.297825 0)
(0.0793879 0.288032 0)
(0.0871152 0.277101 0)
(0.0948351 0.264994 0)
(0.102506 0.251671 0)
(0.110079 0.237088 0)
(0.117489 0.221204 0)
(0.124661 0.203983 0)
(0.131508 0.1854 0)
(0.137942 0.165443 0)
(0.143872 0.144119 0)
(0.14923 0.121444 0)
(0.153923 0.097463 0)
(0.157827 0.0720223 0)
(0.00829366 0.360978 0)
(0.0148481 0.339668 0)
(0.0169157 0.324038 0)
(0.0241416 0.326485 0)
(0.0294905 0.323936 0)
(0.0362736 0.319341 0)
(0.0424045 0.313656 0)
(0.0488414 0.307067 0)
(0.0552897 0.299407 0)
(0.0617717 0.290675 0)
(0.0682899 0.280859 0)
(0.0747973 0.269936 0)
(0.0812565 0.257877 0)
(0.0876255 0.24465 0)
(0.0938539 0.230222 0)
(0.0998819 0.214556 0)
(0.105641 0.19763 0)
(0.111053 0.179422 0)
(0.116046 0.159918 0)
(0.120535 0.139122 0)
(0.124475 0.117041 0)
(0.127776 0.0937083 0)
(0.130338 0.0689753 0)
(0.00816208 0.349813 0)
(0.0138022 0.335494 0)
(0.0149118 0.319941 0)
(0.0208999 0.321052 0)
(0.0249394 0.318179 0)
(0.0306341 0.31357 0)
(0.035519 0.307839 0)
(0.0408231 0.301202 0)
(0.0460693 0.293493 0)
(0.0513445 0.284743 0)
(0.0566266 0.274937 0)
(0.0618619 0.264059 0)
(0.0670137 0.252086 0)
(0.0720432 0.238993 0)
(0.0768995 0.224753 0)
(0.0815271 0.209339 0)
(0.0858622 0.192731 0)
(0.0898361 0.174912 0)
(0.0933854 0.155865 0)
(0.0964304 0.135591 0)
(0.0989421 0.114092 0)
(0.100838 0.0913736 0)
(0.10205 0.0673259 0)
(0.00774943 0.339309 0)
(0.0123659 0.331888 0)
(0.0127451 0.317115 0)
(0.0174573 0.316845 0)
(0.0201815 0.313661 0)
(0.0247529 0.30898 0)
(0.0283643 0.303199 0)
(0.032521 0.296509 0)
(0.0365357 0.288764 0)
(0.0405914 0.280018 0)
(0.044624 0.270248 0)
(0.0485847 0.259441 0)
(0.0524409 0.247582 0)
(0.056159 0.234648 0)
(0.0596902 0.220618 0)
(0.0629836 0.205476 0)
(0.0659801 0.189194 0)
(0.0686228 0.171767 0)
(0.0708559 0.153171 0)
(0.072613 0.133406 0)
(0.07388 0.112466 0)
(0.0745846 0.0903198 0)
(0.0746945 0.0669111 0)
(0.00738441 0.330833 0)
(0.0110756 0.329356 0)
(0.0107692 0.315401 0)
(0.0142474 0.313898 0)
(0.0157832 0.310489 0)
(0.0193419 0.305742 0)
(0.0217908 0.299922 0)
(0.0249203 0.293213 0)
(0.0278152 0.28546 0)
(0.0307804 0.276749 0)
(0.0336953 0.267041 0)
(0.0365252 0.256329 0)
(0.0392416 0.244602 0)
(0.0418126 0.231843 0)
(0.044195 0.21803 0)
(0.0463366 0.203158 0)