/*--------------------------------*- C++ -*----------------------------------*\
| =========                 |                                                 |
| \\      /  F ield         | OpenFOAM: The Open Source CFD Toolbox           |
|  \\    /   O peration     | Version:  5.x                                   |
|   \\  /    A nd           | Web:      www.OpenFOAM.org                      |
|    \\/     M anipulation  |                                                 |
\*---------------------------------------------------------------------------*/
FoamFile
{
    version     2.0;
    format      ascii;
    class       surfaceScalarField;
    location    "0.2";
    object      alphaPhi10;
}
// * * * * * * * * * * * * * * * * * * * * * * * * * * * * * * * * * * * * * //

dimensions      [0 3 -1 0 0 0 0];

internalField   nonuniform List<scalar> 
4432
(
2.1009e-06
-2.1009e-06
7.78087e-06
-5.67996e-06
1.41304e-05
-6.34957e-06
2.00282e-05
-5.89773e-06
2.54373e-05
-5.40913e-06
3.06124e-05
-5.17516e-06
3.57708e-05
-5.1584e-06
4.10207e-05
-5.24983e-06
4.63735e-05
-5.35278e-06
5.17743e-05
-5.40085e-06
5.71212e-05
-5.34691e-06
6.22664e-05
-5.1452e-06
6.70049e-05
-4.73851e-06
7.10539e-05
-4.04898e-06
7.39885e-05
-2.93455e-06
7.49776e-05
-9.89119e-07
7.2463e-05
2.51455e-06
6.41766e-05
8.28639e-06
4.81797e-05
1.5997e-05
2.41573e-05
2.40223e-05
-3.10255e-06
2.72599e-05
-1.35516e-05
1.46286e-05
-1.39967e-05
2.14925e-06
-4.25015e-06
7.83189e-06
-1.13626e-05
1.41811e-05
-1.26988e-05
2.00852e-05
-1.18019e-05
2.55005e-05
-1.08244e-05
3.06888e-05
-1.03634e-05
3.58704e-05
-1.034e-05
4.11501e-05
-1.05296e-05
4.65371e-05
-1.07397e-05
5.19781e-05
-1.08419e-05
5.73756e-05
-1.07443e-05
6.25858e-05
-1.03555e-05
6.74088e-05
-9.5615e-06
7.15667e-05
-8.2068e-06
7.47039e-05
-6.0718e-06
7.66209e-05
-2.90608e-06
7.73539e-05
1.78157e-06
7.66913e-05
8.94894e-06
7.23632e-05
2.0325e-05
6.001e-05
3.63751e-05
3.74831e-05
4.97866e-05
1.29831e-05
3.9744e-05
-4.88393e-06
2.21215e-06
-6.46231e-06
7.88559e-06
-1.7036e-05
1.41854e-05
-1.89986e-05
2.00377e-05
-1.76541e-05
2.54178e-05
-1.62045e-05
3.05944e-05
-1.55401e-05
3.57857e-05
-1.55313e-05
4.10888e-05
-1.58327e-05
4.65093e-05
-1.61602e-05
5.19964e-05
-1.6329e-05
5.74583e-05
-1.62063e-05
6.276e-05
-1.56572e-05
6.77122e-05
-1.45136e-05
7.20563e-05
-1.25509e-05
7.54575e-05
-9.47294e-06
7.74577e-05
-4.90633e-06
7.76255e-05
1.6138e-06
7.59298e-05
1.06446e-05
7.30954e-05
2.31594e-05
6.88542e-05
4.06163e-05
5.75931e-05
6.10477e-05
3.2479e-05
6.48582e-05
2.32513e-05
2.30487e-06
-8.76717e-06
7.97729e-06
-2.27084e-05
1.42056e-05
-2.5227e-05
1.99777e-05
-2.34262e-05
2.53084e-05
-2.15352e-05
3.04749e-05
-2.07065e-05
3.56863e-05
-2.07427e-05
4.10288e-05
-2.11752e-05
4.65036e-05
-2.1635e-05
5.20638e-05
-2.18892e-05
5.76262e-05
-2.17687e-05
6.30683e-05
-2.10993e-05
6.82171e-05
-1.96624e-05
7.28306e-05
-1.71644e-05
7.65787e-05
-1.32211e-05
7.90421e-05
-7.36965e-06
7.97253e-05
9.30606e-07
7.81609e-05
1.22089e-05
7.43608e-05
2.69596e-05
6.97105e-05
4.52666e-05
6.22094e-05
6.85488e-05
4.10963e-05
8.59713e-05
5.73822e-05
2.42815e-06
-1.11953e-05
8.1009e-06
-2.83812e-05
1.42323e-05
-3.13584e-05
1.98975e-05
-2.90913e-05
2.51666e-05
-2.68044e-05
3.03244e-05
-2.58643e-05
3.55643e-05
-2.59827e-05
4.09576e-05
-2.65685e-05
4.65015e-05
-2.71789e-05
5.21545e-05
-2.75422e-05
5.78453e-05
-2.74595e-05
6.34687e-05
-2.67227e-05
6.88727e-05
-2.50664e-05
7.38333e-05
-2.21251e-05
7.80323e-05
-1.74201e-05
8.106e-05
-1.03973e-05
8.24589e-05
-4.68353e-07
8.17233e-05
1.29446e-05
7.82423e-05
3.04406e-05
7.19644e-05
5.15445e-05
6.32519e-05
7.72613e-05
4.36223e-05
0.000105601
0.000105295
2.58251e-06
-1.37778e-05
8.24787e-06
-3.40465e-05
1.42534e-05
-3.7364e-05
1.97877e-05
-3.46257e-05
2.49863e-05
-3.20029e-05
3.01363e-05
-3.10143e-05
3.54091e-05
-3.12555e-05
4.08584e-05
-3.20178e-05
4.64784e-05
-3.27988e-05
5.22358e-05
-3.32996e-05
5.80751e-05
-3.32988e-05
6.39134e-05
-3.2561e-05
6.96223e-05
-3.07753e-05
7.49971e-05
-2.74998e-05
7.97344e-05
-2.21574e-05
8.34366e-05
-1.40995e-05
8.56557e-05
-2.68739e-06
8.58617e-05
1.27385e-05
8.33759e-05
3.29264e-05
7.6931e-05
5.79894e-05
6.615e-05
8.80422e-05
4.59561e-05
0.000125795
0.000157491
2.76259e-06
-1.65404e-05
8.40434e-06
-3.96883e-05
1.42546e-05
-4.32142e-05
1.964e-05
-4.00111e-05
2.47624e-05
-3.71253e-05
2.99048e-05
-3.61567e-05
3.52107e-05
-3.65614e-05
4.07155e-05
-3.75226e-05
4.64124e-05
-3.84957e-05
5.22793e-05
-3.91665e-05
5.8281e-05
-3.93005e-05
6.43603e-05
-3.86403e-05
7.04131e-05
-3.68281e-05
7.62549e-05
-3.33416e-05
8.16059e-05
-2.75085e-05
8.60998e-05
-1.85934e-05
8.92914e-05
-5.87898e-06
9.05871e-05
1.14428e-05
8.93057e-05
3.42077e-05
8.39467e-05
6.33484e-05
7.2468e-05
9.95209e-05
5.30133e-05
0.00014525
0.000210647
2.95591e-06
-1.94963e-05
8.54912e-06
-4.52815e-05
1.42242e-05
-4.88892e-05
1.94531e-05
-4.52401e-05
2.44973e-05
-4.21695e-05
2.96304e-05
-4.12897e-05
3.49653e-05
-4.18963e-05
4.05205e-05
-4.30778e-05
4.62907e-05
-4.4266e-05
5.22686e-05
-4.51444e-05
5.84431e-05
-4.5475e-05
6.47837e-05
-4.49809e-05
7.12102e-05
-4.32546e-05
7.75655e-05
-3.96968e-05
8.36005e-05
-3.35436e-05
8.89839e-05
-2.39767e-05
9.33019e-05
-1.0197e-05
9.59005e-05
8.84418e-06
9.61277e-05
3.39805e-05
9.25836e-05
6.68923e-05
8.1894e-05
0.00011021
6.08463e-05
0.000166297
0.000271493
7.72607e-26
-1.93132e-25
1.10022e-25
-8.19048e-26
1.50345e-26
-2.6948e-27
5.79085e-28
-4.15474e-27
6.21337e-30
-1.52044e-28
1.70569e-31
-2.8619e-30
1.20982e-32
-9.19951e-32
7.08087e-34
-3.53812e-33
2.53628e-35
-9.40047e-35
7.17513e-37
-1.20579e-36
1.7394e-38
5.79208e-39
3.45879e-40
4.47915e-40
5.3786e-42
1.46521e-41
6.41569e-44
3.09144e-43
5.51815e-46
4.97731e-45
3.1616e-48
5.55359e-47
9.99576e-51
4.23126e-49
1.12179e-53
1.86213e-51
3.23374e-54
-1.21252e-23
3.51405e-24
-3.27419e-24
-1.86816e-23
2.87752e-25
-4.56797e-24
6.3248e-26
-1.26812e-24
1.03551e-27
-4.37232e-26
3.31974e-29
-9.7594e-28
1.77114e-30
-2.27964e-29
8.57841e-32
-6.50996e-31
2.98958e-33
-1.48806e-32
8.25115e-35
-1.75356e-34
1.9156e-36
2.1917e-36
3.63356e-38
1.78945e-37
5.40581e-40
5.56607e-39
6.08313e-42
1.14276e-40
4.85322e-44
1.70317e-42
2.45816e-46
1.74988e-44
6.16603e-49
1.15381e-46
4.33649e-52
3.71014e-49
3.57057e-52
-7.39097e-22
6.05583e-22
-1.68278e-22
-2.61055e-21
5.68997e-23
-2.58346e-21
5.1469e-24
-3.90824e-22
8.97325e-26
-9.31765e-24
2.86721e-27
-2.00298e-25
1.06637e-28
-3.49502e-27
3.7552e-30
-6.06876e-29
1.12014e-31
-1.01402e-30
2.79289e-33
-1.00942e-32
5.91428e-35
1.15614e-34
1.03177e-36
8.39697e-36
1.41279e-38
2.39473e-37
1.45287e-40
4.51906e-39
1.0379e-42
6.0939e-41
4.50399e-45
5.52816e-43
9.54941e-48
3.12007e-45
8.14485e-51
8.57766e-48
8.67768e-51
-6.1496e-20
4.88687e-20
-3.69514e-20
-6.52169e-19
2.81329e-21
-1.06176e-18
2.9753e-22
-9.50446e-20
4.68063e-24
-9.34664e-22
1.83214e-25
-1.87088e-23
6.41579e-27
-5.85654e-25
1.44643e-28
-7.96085e-27
3.28777e-30
-6.91345e-29
7.15848e-32
-4.67536e-31
1.34894e-33
4.2225e-33
2.12566e-35
2.57373e-34
2.64622e-37
6.57994e-36
2.46348e-39
1.12576e-37
1.61701e-41
1.36462e-39
6.56888e-44
1.15066e-41
1.28809e-46
6.03796e-44
1.5443e-49
1.51673e-46
1.62605e-49
-6.37635e-18
5.26498e-18
-4.46327e-18
-8.05146e-17
-8.77339e-20
-1.5196e-17
6.51691e-21
-1.99984e-18
1.02267e-22
-1.94406e-20
5.92037e-24
-3.49391e-22
3.16371e-25
-2.09051e-23
5.45265e-27
-4.52683e-25
8.31934e-29
-4.22321e-27
1.45406e-30
-1.71018e-29
2.41029e-32
1.14741e-31
3.39579e-34
5.80635e-33
3.88964e-36
1.30685e-34
3.3931e-38
2.05582e-36
2.09237e-40
2.31458e-38
8.12899e-43
1.84974e-40
1.5319e-45
9.21454e-43
2.3412e-48
2.20108e-45
2.50106e-48
-1.09077e-16
1.05643e-16
-4.23989e-17
-1.66628e-16
-1.27687e-18
-6.87781e-17
2.31994e-20
-4.7777e-18
9.64689e-22
-2.18173e-19
5.33609e-23
-2.65189e-21
3.17388e-24
-9.6422e-23
8.52372e-26
-2.31075e-24
1.50137e-27
-5.0961e-26
2.09588e-29
-2.18918e-28
3.23332e-31
2.00556e-30
4.25682e-33
9.07226e-32
4.5379e-35
1.91102e-33
3.76658e-37
2.79098e-35
2.29333e-39
3.05766e-37
8.69802e-42
2.38416e-39
1.52546e-44
1.13257e-41
2.81496e-47
2.49131e-44
3.06472e-47
-2.30846e-16
5.27505e-16
-1.20179e-16
3.77616e-17
-5.59007e-18
7.10164e-16
-1.63728e-20
1.7977e-17
6.90431e-21
-4.28245e-19
2.59701e-22
-2.41237e-20
5.84502e-24
-1.62522e-22
2.71741e-25
-2.58046e-24
8.97375e-27
-4.59553e-26
1.86133e-28
-6.81409e-28
2.92468e-30
1.83494e-29
3.84162e-32
8.80106e-31
4.03134e-34
1.88349e-32
3.34371e-36
2.79056e-34
2.01931e-38
3.05371e-36
7.44402e-41
2.32817e-38
1.3856e-43
1.08197e-40
2.70575e-46
2.36401e-43
3.01258e-46
-4.56357e-17
5.73141e-16
-5.09637e-15
1.11529e-14
-2.35919e-16
1.65874e-15
-9.1908e-19
-3.06543e-16
3.24306e-20
1.11122e-17
1.40588e-20
1.36886e-18
4.09866e-22
1.49217e-20
5.25405e-24
4.42627e-23
1.55623e-26
2.55142e-25
5.54901e-27
-5.97733e-27
2.9982e-29
1.53395e-28
2.81394e-31
7.04381e-30
3.21596e-33
1.62766e-31
2.6123e-35
2.49381e-33
1.43464e-37
2.64368e-35
4.62245e-40
1.85243e-37
1.64761e-42
7.52416e-40
2.06466e-45
1.81489e-42
2.36587e-45
6.818e-06
-2.63143e-05
1.86489e-05
-5.71124e-05
3.00579e-05
-6.02982e-05
4.06003e-05
-5.57825e-05
5.10728e-05
-5.26421e-05
6.1951e-05
-5.21679e-05
7.33599e-05
-5.33052e-05
8.5304e-05
-5.50218e-05
9.77975e-05
-5.67595e-05
0.000110891
-5.82375e-05
0.000124655
-5.92397e-05
0.000139123
-5.94486e-05
0.000154246
-5.83773e-05
0.000169835
-5.52857e-05
0.000185435
-4.91445e-05
0.000200336
-3.88775e-05
0.000213733
-2.35938e-05
0.000224109
-1.53213e-06
0.00023049
2.75999e-05
0.000230109
6.72732e-05
0.000221149
0.000119171
0.000212486
0.00017496
0.000257289
0.00022669
7.60345e-06
-3.39178e-05
1.90383e-05
-6.85472e-05
2.95627e-05
-7.08226e-05
3.94219e-05
-6.56417e-05
4.95713e-05
-6.27914e-05
6.03618e-05
-6.29585e-05
7.1794e-05
-6.47373e-05
8.38446e-05
-6.70724e-05
9.65853e-05
-6.95002e-05
0.000110181
-7.18335e-05
0.000124844
-7.39023e-05
0.000140771
-7.5376e-05
0.000158204
-7.58105e-05
0.00017722
-7.43012e-05
0.000197393
-6.93179e-05
0.000217936
-5.942e-05
0.000238
-4.36584e-05
0.00025626
-1.9792e-05
0.00027203
1.18304e-05
0.000282795
5.65079e-05
0.000291578
0.000110388
0.000301962
0.000164575
0.000232333
0.000326918
8.33382e-06
-4.22516e-05
1.91899e-05
-7.94034e-05
2.87205e-05
-8.03532e-05
3.79101e-05
-7.48312e-05
4.77351e-05
-7.26165e-05
5.83484e-05
-7.35718e-05
6.96482e-05
-7.60371e-05
8.16205e-05
-7.90448e-05
9.44282e-05
-8.23079e-05
0.000108358
-8.57632e-05
0.000123741
-8.92851e-05
0.000140962
-9.25968e-05
0.000160674
-9.5523e-05
0.000183303
-9.69301e-05
0.00020844
-9.44553e-05
0.000235127
-8.61071e-05
0.000263062
-7.15953e-05
0.000290063
-4.67967e-05
0.000317272
-1.68795e-05
0.000335818
3.7962e-05
0.000341706
0.0001045
0.000344417
0.000161864
0.000214456
0.00036229
8.92646e-06
-5.11781e-05
1.90216e-05
-8.94985e-05
2.75403e-05
-8.88718e-05
3.61114e-05
-8.34023e-05
4.55822e-05
-8.20873e-05
5.58862e-05
-8.38757e-05
6.68658e-05
-8.70167e-05
7.85495e-05
-9.07285e-05
9.11902e-05
-9.49486e-05
0.000105098
-9.96712e-05
0.000120609
-0.000104795
0.000138185
-0.000110173
0.000159189
-0.000116527
0.000184594
-0.000122334
0.0002133
-0.000123159
0.000242868
-0.000115674
0.000272281
-0.000101269
0.000259426
-3.86282e-05
0.000219793
-8.03985e-06
0.000167378
3.71907e-06
0.000188775
7.6981e-06
0.000256588
2.385e-05
9.42797e-05
0.000315284
9.34072e-06
-6.05188e-05
1.85163e-05
-9.86741e-05
2.60612e-05
-9.64168e-05
3.40648e-05
-9.14059e-05
4.31161e-05
-9.11386e-05
5.29519e-05
-9.37115e-05
6.33962e-05
-9.7461e-05
7.45108e-05
-0.000101843
8.65116e-05
-0.000106949
9.95189e-05
-0.000112678
0.000113707
-0.000118983
0.000129684
-0.000126149
0.00015048
-0.000137312
0.000176885
-0.000148703
0.000198141
-0.00014436
0.000158895
-6.47722e-05
7.38751e-05
-1.60849e-05
9.82927e-06
-2.92374e-06
2.04318e-06
-2.35363e-07
3.09227e-06
-4.86275e-09
7.55591e-06
4.73788e-07
2.2776e-05
1.68378e-06
3.99826e-06
8.20886e-05
9.57936e-06
-7.00981e-05
1.77052e-05
-0.0001068
2.4346e-05
-0.000103058
3.18097e-05
-9.88695e-05
4.0323e-05
-9.96519e-05
4.94599e-05
-0.000102848
5.90178e-05
-0.000107019
6.90068e-05
-0.000111832
7.94053e-05
-0.000117347
9.01457e-05
-0.000123417
0.000101378
-0.000130206
0.000114859
-0.000139607
0.000135102
-0.000157389
0.000140192
-0.000142029
5.75872e-05
-3.20505e-05
1.86032e-05
-4.50249e-06
3.12773e-06
-5.98428e-07
2.82941e-07
-8.10509e-08
5.27453e-08
-6.44965e-09
4.7662e-08
-2.2504e-10
5.01155e-07
1.85235e-08
1.9918e-06
1.39722e-07
5.37706e-07
5.42108e-06
9.67581e-06
-7.97739e-05
1.65893e-05
-0.000113713
2.23529e-05
-0.000108821
2.92073e-05
-0.000105723
3.69122e-05
-0.000107356
4.49081e-05
-0.000110843
5.29604e-05
-0.00011507
6.09658e-05
-0.000119832
6.88499e-05
-0.000125218
7.70126e-05
-0.000131552
8.64589e-05
-0.000139525
9.79891e-05
-0.000149159
8.2149e-05
-9.23313e-05
3.49731e-05
-1.76988e-05
4.84643e-06
-1.72236e-06
6.37226e-07
-3.10205e-07
8.49015e-08
-5.00218e-08
8.09087e-09
-5.17337e-09
1.43844e-09
-2.79607e-10
1.01669e-09
-1.23079e-11
1.79228e-08
2.80488e-10
1.49429e-07
9.40723e-09
6.63996e-08
6.29098e-07
9.57026e-06
-8.93442e-05
1.50169e-05
-0.000119153
1.97918e-05
-0.000113589
2.57862e-05
-0.00011171
3.22177e-05
-0.000113777
3.85075e-05
-0.000117118
4.4569e-05
-0.000121109
5.05188e-05
-0.000125702
5.73208e-05
-0.000131833
6.58773e-05
-0.000136138
6.40581e-05
-9.72335e-05
3.45116e-05
-2.1552e-05
1.89265e-05
-3.22411e-06
1.74019e-06
-3.8432e-07
2.09197e-07
-2.20856e-07
3.47836e-08
-1.55612e-07
4.12849e-09
-2.33516e-08
5.97505e-10
-2.28153e-09
2.04743e-10
-9.30478e-11
6.10951e-11
-1.01094e-11
3.21644e-10
-1.5742e-12
9.44034e-09
3.47445e-10
5.2747e-09
7.05647e-08
9.3461e-06
-9.86903e-05
1.27952e-05
-0.000122506
1.62968e-05
-0.000116994
2.11766e-05
-0.000116472
2.62106e-05
-0.000118651
3.1297e-05
-0.000121987
3.68715e-05
-0.000122872
4.10867e-05
-0.000102709
3.99573e-05
-6.88258e-05
2.6309e-05
-1.28485e-05
2.48517e-05
-1.66785e-06
3.61125e-06
-2.02425e-07
4.24883e-07
-2.6605e-08
4.57722e-08
-3.05486e-09
1.45596e-07
-1.62796e-07
2.26755e-07
-7.91866e-07
5.71048e-09
-1.05739e-07
2.20229e-10
-1.99236e-09
3.98389e-11
-5.70864e-11
2.09572e-11
-1.34305e-11
8.93782e-12
-1.59724e-12
3.49573e-10
6.59929e-12
2.82998e-10
5.4439e-09
9.62545e-06
-9.73009e-05
9.94757e-06
-8.70054e-05
1.22503e-05
-8.28343e-05
1.58421e-05
-7.44303e-05
1.87529e-05
-6.1299e-05
2.00806e-05
-4.53376e-05
1.82644e-05
-1.18826e-05
1.15632e-05
-8.24245e-07
1.47283e-05
-7.54323e-08
1.89438e-06
-7.70153e-09
2.25145e-07
-1.04096e-09
3.03071e-08
-7.86827e-09
6.01066e-09
-3.50704e-09
4.32641e-09
-1.70472e-09
2.85116e-07
-3.9415e-07
5.2455e-07
-7.93556e-07
1.56457e-08
-2.43469e-07
2.89763e-10
-5.08848e-10
2.54014e-11
6.66537e-11
6.81826e-12
-6.97088e-12
1.51045e-12
-4.45166e-13
7.63478e-12
-1.34175e-14
-1.42381e-12
2.96716e-10
5.03852e-06
9.83943e-24
3.12561e-06
3.71782e-23
4.30649e-06
-8.46673e-23
4.37487e-06
-1.51512e-20
3.59945e-06
-1.25755e-18
4.35557e-06
-5.62498e-17
9.08057e-07
-2.77316e-16
8.38123e-08
-1.0815e-14
8.40445e-09
-3.19649e-13
6.59191e-10
-1.01579e-11
9.69691e-10
-9.43705e-10
2.52681e-09
-8.31474e-09
3.49518e-09
-4.48892e-09
2.75133e-09
-1.7654e-09
3.66178e-07
-3.0741e-07
4.76626e-07
-6.6626e-07
5.25343e-08
-2.92209e-07
1.96299e-10
1.98964e-09
1.00719e-11
1.68155e-10
1.0343e-12
-1.57106e-12
5.80724e-13
-1.43539e-13
5.54556e-13
-3.37244e-14
-6.49707e-12
1.91372e-10
-1.17728e-24
6.84514e-23
-8.54299e-24
2.53411e-22
2.28952e-24
-9.54998e-23
5.83173e-22
-1.56272e-20
6.64625e-20
-1.30697e-18
3.37485e-18
-5.82752e-17
2.59263e-17
-2.44072e-16
1.05281e-15
-1.15071e-14
3.17388e-14
-3.47706e-13
6.02071e-12
-1.57515e-11
1.94839e-09
-2.89838e-09
1.01897e-08
-1.72548e-08
1.11309e-08
-6.76934e-09
1.19359e-08
-2.86497e-09
2.81802e-07
-1.44201e-07
3.78744e-07
-5.25458e-07
4.33709e-08
-2.48803e-07
-3.23347e-11
3.72039e-09
2.62662e-12
1.02024e-10
2.02749e-13
-3.40475e-14
9.86948e-14
-3.48972e-14
1.05263e-13
-7.12001e-14
-4.77464e-12
8.33978e-11
-3.53127e-24
1.03085e-22
-4.01692e-23
3.61424e-22
9.63643e-23
-2.32463e-22
7.02856e-21
-2.67314e-20
6.0493e-19
-2.17857e-18
3.50241e-17
-1.06666e-16
2.70365e-16
-4.66373e-16
3.36276e-14
-4.49834e-14
1.36713e-12
-1.7286e-12
8.99313e-11
-1.03832e-10
2.18559e-08
-2.44456e-08
6.57721e-08
-1.70533e-07
4.50906e-08
-1.04838e-07
4.52813e-08
-3.34712e-09
1.90658e-07
-8.46821e-08
3.07504e-07
-4.01044e-07
1.00924e-08
-8.39704e-08
-8.28259e-11
3.45255e-09
-1.07107e-13
1.77213e-11
-2.52659e-15
-1.846e-15
9.78057e-15
-3.03118e-14
3.62028e-13
-7.66385e-14
-9.25157e-12
4.50701e-12
-5.19386e-24
1.01345e-22
-4.1361e-23
2.71535e-22
3.66347e-22
-2.67193e-21
5.82964e-20
-3.61848e-19
5.16531e-18
-2.48847e-17
1.78065e-16
-9.03738e-16
1.67244e-15
-3.05456e-15
2.56486e-13
-4.06596e-13
8.74903e-12
-1.02121e-11
5.71717e-10
-6.7048e-10
3.65807e-08
-1.22072e-07
7.47973e-08
-1.99963e-07
6.72359e-08
-1.35323e-07
5.90814e-08
-2.10261e-09
1.45003e-07
-6.25696e-08
1.58165e-07
-1.78904e-07
-3.26354e-09
2.04832e-08
-1.72746e-11
2.04493e-10
-9.26714e-14
5.61992e-13
-2.04305e-14
-1.44378e-15
1.31794e-14
-2.94542e-14
4.25448e-13
-4.17413e-13
-8.57379e-12
-6.51427e-13
-4.59787e-24
6.91794e-23
-1.86301e-23
8.14972e-24
1.84946e-21
-2.13107e-20
2.81016e-19
-2.45228e-18
2.14993e-17
-1.56326e-16
6.31162e-16
-4.07155e-15
1.83153e-14
-2.83658e-14
8.13119e-13
-9.32559e-13
3.79458e-11
-5.27887e-11
2.96815e-09
-3.59993e-09
6.65784e-09
-1.61683e-07
1.4443e-09
-1.85394e-07
2.16027e-09
-1.26833e-07
1.13347e-08
-2.18966e-08
3.62822e-08
-7.19321e-08
-1.93183e-08
-1.88449e-08
-1.95028e-10
1.36275e-09
-6.26173e-13
1.02056e-11
-6.02025e-14
7.36349e-15
-2.80096e-14
-7.82873e-16
8.05463e-14
-4.45538e-14
1.72096e-12
-1.13718e-12
-2.31669e-11
3.41312e-11
-1.89608e-24
2.92733e-23
-2.41292e-25
-3.06758e-22
3.12333e-21
-7.03216e-20
3.98408e-19
-8.44449e-18
2.4681e-17
-7.04313e-16
2.97267e-16
-1.99334e-14
2.59346e-15
-8.663e-14
1.21581e-12
-5.45971e-13
-3.06192e-11
-2.03919e-11
-2.9468e-09
-6.7514e-10
-3.43016e-08
-2.5324e-08
-5.62326e-08
-1.54677e-07
6.51027e-09
-1.80369e-07
-6.87719e-08
-5.31037e-08
-1.04428e-07
-6.47822e-09
-1.33428e-09
5.33597e-09
-9.9537e-12
3.91586e-11
-2.3811e-14
2.85608e-13
-1.60293e-14
8.08975e-16
1.08883e-14
-1.4946e-15
2.24743e-13
-6.83257e-14
2.30936e-12
-1.41034e-12
-2.2788e-11
2.67799e-11
-1.86289e-25
9.29043e-25
-1.14238e-24
-5.2026e-22
-1.7808e-21
-1.15042e-19
-9.41197e-19
-1.46983e-17
-4.22896e-16
-1.57116e-15
-6.53468e-15
-5.81903e-14
-2.58367e-15
-2.21263e-13
-3.45101e-13
-2.13242e-13
-2.1117e-11
-2.80007e-14
-6.9827e-10
-5.11684e-14
-2.60284e-08
-1.47439e-13
-5.27113e-08
-8.61531e-13
-8.0951e-08
-5.74586e-12
-7.90101e-09
-3.54513e-11
-5.32361e-09
-7.32986e-11
-3.89821e-11
6.57828e-11
-2.97316e-13
5.35461e-13
-1.20834e-14
1.95752e-15
-1.24804e-14
1.4617e-16
-2.48938e-15
-1.92306e-15
5.36782e-14
-3.43509e-14
-1.28914e-13
-5.59097e-13
-8.23677e-12
-7.18605e-12
-8.37286e-24
-2.19197e-24
-4.2666e-23
-4.76987e-22
-1.24605e-20
-9.2195e-20
-3.9661e-18
-1.10083e-17
-1.79638e-15
-1.49314e-15
-3.3968e-14
-5.52141e-14
-4.01004e-14
-1.81385e-13
-7.89487e-15
-1.6785e-13
-1.18951e-14
-2.39296e-14
-2.48465e-14
-3.92128e-14
-1.14652e-13
-5.82514e-14
-8.74618e-13
-9.0326e-14
-6.17861e-12
-3.64066e-13
-3.9752e-11
-1.6451e-12
-6.72427e-11
-2.23951e-12
-5.42592e-13
-4.25248e-14
-4.12425e-15
8.05723e-16
-2.58358e-15
-5.5602e-18
-6.4996e-15
-8.17322e-17
-1.12394e-14
-9.48758e-16
-4.49087e-14
-6.99673e-15
-4.98042e-13
-9.40916e-14
-1.20226e-12
-7.25769e-12
-7.77159e-25
-1.41481e-24
-2.29388e-22
-2.30909e-22
-5.59448e-20
-3.55146e-20
-8.08612e-18
-3.49175e-18
-2.44905e-15
-3.23359e-16
-3.82151e-14
-1.71073e-14
-5.07727e-14
-7.87733e-14
-8.77219e-15
-6.2254e-14
-1.21364e-14
-1.89831e-14
-1.90598e-14
-3.22051e-14
-2.78911e-14
-5.54947e-14
-6.70152e-14
-5.54e-14
-3.83961e-13
-5.02865e-14
-1.89782e-12
-8.8712e-14
-2.11033e-13
-1.47777e-13
-9.62031e-16
-4.56773e-16
-1.10138e-16
-1.46536e-18
-3.83052e-16
-3.25179e-18
-3.50972e-15
-2.13591e-17
-7.10891e-15
-1.40351e-16
-5.23782e-16
-8.14541e-16
-1.38067e-13
-8.21514e-15
-8.90943e-14
-1.65438e-12
-2.64305e-24
1.22823e-24
-1.62465e-22
-6.97779e-23
-2.5172e-20
-1.10662e-20
-2.64979e-18
-8.21235e-19
-4.19512e-16
-4.30952e-18
-1.08344e-14
-3.30386e-18
-1.32602e-14
-9.63239e-17
-7.75424e-15
-4.73782e-16
-1.23748e-14
-6.21223e-15
-4.35415e-14
-3.07507e-14
-6.81899e-14
-7.3021e-14
-7.76147e-14
-7.89215e-14
-7.82853e-14
-5.61136e-14
-2.03209e-14
-1.67925e-14
-7.01228e-17
-8.21838e-17
-4.80466e-18
-1.36077e-18
-5.84181e-18
-2.63392e-19
-3.461e-17
-3.60959e-19
-2.35418e-16
-1.8132e-18
-1.24526e-15
-1.16609e-17
-5.29142e-15
-8.03118e-17
-2.44501e-14
-5.13754e-16
-1.23406e-15
-2.64521e-13
-2.7147e-24
5.67834e-24
-1.49917e-22
7.74241e-23
-1.90626e-20
3.04005e-22
-3.70138e-19
-1.94733e-22
-1.34071e-19
-1.10977e-20
-3.15936e-18
-5.38071e-19
-8.25314e-17
-1.74127e-17
-3.10296e-16
-3.67215e-16
-7.72237e-15
-2.67423e-15
-4.40426e-14
-4.4148e-15
-7.62326e-14
-4.37008e-15
-7.32808e-14
-1.07679e-15
-3.1556e-14
-6.65649e-16
-9.0553e-17
-3.77404e-16
-4.22512e-18
-2.12698e-16
-8.46443e-19
-4.67286e-19
-8.93301e-19
-1.41155e-19
-2.28836e-18
-2.07899e-19
-1.30844e-17
-2.62769e-19
-1.00948e-16
-6.75225e-19
-1.10317e-15
-4.12874e-18
-1.30569e-14
-1.32683e-17
1.97975e-16
-4.58341e-14
3.3632e-24
2.39962e-24
2.70429e-23
3.30444e-23
-3.12281e-23
1.38799e-22
-1.88694e-22
-3.7267e-23
-9.49431e-21
-1.93528e-21
-4.18745e-19
-1.3421e-19
-3.22594e-17
-4.35844e-18
-6.46212e-16
-5.75825e-17
-1.38367e-15
-1.5881e-16
-1.57956e-15
-1.70143e-16
-1.37701e-15
-1.37857e-16
-1.03733e-16
-9.76482e-17
-2.17156e-16
-6.29279e-17
-4.57214e-16
-6.34813e-17
-8.17421e-19
-1.32924e-17
-3.89678e-19
-7.45399e-20
-6.13466e-19
-7.96705e-20
-8.02348e-19
-1.05319e-19
-1.22115e-18
-8.13061e-20
-5.79414e-18
-5.3208e-20
-6.30719e-17
-1.68247e-19
-8.30698e-16
2.53335e-19
3.46746e-17
-6.4757e-15
1.56023e-24
4.95424e-25
1.3376e-23
6.7848e-24
-6.43913e-24
2.80276e-23
-3.52763e-23
-8.42978e-24
-1.62099e-21
-4.16841e-22
-1.1132e-19
-2.47571e-20
-4.96291e-18
-8.46123e-19
-4.80651e-17
-2.14819e-17
-1.01864e-16
-1.05563e-16
-1.06302e-16
-1.56134e-16
-9.68849e-17
-1.4993e-16
-7.16351e-17
-1.16989e-16
-6.44174e-17
-3.0135e-17
-3.91685e-17
-4.53552e-18
-1.08097e-19
-2.52755e-19
-1.321e-19
-1.25528e-20
-2.91237e-19
-1.63149e-20
-2.91197e-19
-2.12783e-20
-2.35432e-19
-1.51091e-20
-3.57353e-19
-5.63052e-21
-2.99656e-18
-6.56258e-21
-4.21444e-17
4.81163e-20
2.53667e-18
-5.42692e-16
3.38111e-25
-1.45441e-31
2.84566e-24
-3.52651e-29
-1.36115e-24
-4.16358e-27
-9.42585e-24
-3.65081e-25
-4.16141e-22
-1.7205e-23
-2.41862e-20
-9.84859e-22
-1.0553e-18
-2.89934e-20
-2.41685e-17
-1.34196e-18
-9.56906e-17
-2.03352e-17
-1.14572e-16
-7.84609e-17
-1.07472e-16
-7.98025e-17
-5.57937e-17
-9.21717e-17
-1.15e-17
-3.67135e-17
-8.55829e-19
-6.26226e-18
-1.87531e-20
-3.52691e-19
-2.1213e-20
-3.40497e-21
-4.48279e-20
-9.23753e-22
-4.49285e-20
-8.83972e-22
-2.59649e-20
-6.99246e-22
-2.88505e-20
-2.52087e-22
-1.39217e-19
-2.46389e-22
-2.15963e-18
3.39947e-21
1.4722e-19
-3.51277e-17
-1.44914e-31
-5.26831e-34
-3.52778e-29
-1.32204e-31
-4.18268e-27
-1.61781e-29
-3.6828e-25
-7.96267e-28
-1.7548e-23
-3.94404e-26
-9.99903e-22
-2.31197e-24
-3.05222e-20
-7.32858e-23
-1.49055e-18
-3.01504e-21
-1.78366e-17
-9.49134e-20
-6.08331e-17
-6.38265e-19
-6.59923e-17
-1.35185e-18
-5.53301e-17
-1.48244e-18
-1.5024e-17
-8.01504e-19
-1.14079e-18
-1.66187e-19
-1.22553e-20
-3.55895e-20
-2.40223e-21
-4.66587e-21
-1.59586e-21
-6.72569e-22
-1.7945e-21
-1.16476e-23
-1.07329e-21
-8.4093e-24
-1.18755e-21
-3.88493e-24
-5.90815e-21
-9.02841e-24
-1.0187e-19
1.63679e-22
6.70422e-21
-1.72435e-18
-5.24792e-34
-2.03911e-36
-1.32056e-31
-5.30042e-34
-1.62275e-29
-6.81048e-32
-8.10213e-28
-3.45551e-30
-4.0229e-26
-1.8686e-28
-2.41134e-24
-1.04013e-26
-7.58881e-23
-3.8528e-25
-4.09713e-21
-1.70052e-23
-9.81793e-20
-5.70071e-22
-4.35905e-19
-4.35073e-21
-6.7369e-19
-1.13405e-20
-5.93811e-19
-1.53265e-20
-1.79097e-19
-1.45412e-20
-4.80589e-20
-7.46736e-21
-1.50189e-20
-3.49804e-21
-2.58228e-21
-1.73193e-21
-1.93751e-23
-3.58448e-22
-1.98947e-23
-9.36497e-26
-1.53693e-23
-6.79686e-26
-2.18195e-23
-8.53127e-26
-2.21975e-22
-2.92756e-25
-4.15532e-21
6.10855e-24
2.64052e-22
-7.51557e-20
-2.03865e-36
-4.63675e-40
-5.31949e-34
-1.27607e-37
-6.86201e-32
-1.73983e-35
-3.54226e-30
-9.18088e-34
-1.90339e-28
-5.4364e-32
-1.05881e-26
-3.21981e-30
-3.98675e-25
-1.27685e-28
-2.1759e-23
-4.79147e-27
-5.55712e-22
-1.89411e-25
-3.05123e-21
-6.4635e-24
-6.44335e-21
-5.77071e-23
-7.74213e-21
-1.69284e-22
-6.18414e-21
-2.40439e-22
-3.5662e-21
-2.28023e-22
-2.42473e-21
-9.71383e-23
-9.19316e-22
-1.50671e-23
-1.92665e-26
-1.54859e-24
-9.18409e-26
7.95018e-26
-1.63274e-25
-7.42376e-28
-5.24903e-25
-1.89837e-27
-6.9911e-24
-7.88813e-27
-1.44387e-22
1.78191e-25
8.60623e-24
-2.89248e-21
-4.63376e-40
-2.99099e-43
-1.27966e-37
-9.29979e-41
-1.7509e-35
-1.43051e-38
-9.30164e-34
-8.51227e-37
-5.52819e-32
-5.63038e-35
-3.2713e-30
-3.57816e-33
-1.30769e-28
-1.54209e-31
-4.94296e-27
-6.25572e-30
-2.49849e-25
-2.30773e-28
-7.55292e-24
-1.09244e-26
-4.97646e-23
-1.63976e-25
-1.14837e-22
-6.8823e-25
-1.3986e-22
-1.17937e-24
-1.04609e-22
-1.21925e-24
-2.33797e-23
-6.49791e-25
-3.4171e-24
-7.01335e-26
2.34025e-25
4.77324e-27
-1.82148e-27
5.1035e-27
-1.90422e-27
-1.27433e-29
-1.14799e-26
-3.2316e-29
-1.77925e-25
-1.78815e-28
-4.13828e-24
3.96228e-27
2.21949e-25
-9.37064e-23
-3.08114e-43
-1.95429e-47
-9.53005e-41
-6.26423e-45
-1.45918e-38
-9.87664e-43
-8.65723e-37
-8.56293e-41
-5.7163e-35
-6.12667e-39
-3.63488e-33
-4.21467e-37
-1.57825e-31
-1.98404e-35
-6.41327e-30
-8.76524e-34
-2.62471e-28
-3.39188e-32
-1.46945e-26
-1.36974e-30
-1.64895e-25
-5.25374e-29
-5.03885e-25
-6.05274e-28
-7.05031e-25
-2.20062e-27
-6.17878e-25
-3.59445e-27
-1.20364e-25
-3.69745e-27
1.01073e-26
-2.31236e-27
1.41718e-26
-2.09861e-28
-2.94614e-29
8.02944e-30
-2.97713e-29
-3.40437e-31
-1.94815e-28
-4.80206e-31
-3.60878e-27
-3.35528e-30
-9.59667e-26
6.7634e-29
4.51898e-27
-2.46735e-24
-1.95404e-47
-2.49188e-51
-6.28284e-45
-8.71653e-49
-9.93794e-43
-1.49939e-46
-8.66094e-41
-1.4219e-44
-6.20967e-39
-1.11025e-42
-4.27603e-37
-8.31595e-41
-2.02723e-35
-4.3348e-39
-8.96583e-34
-2.10386e-37
-3.49282e-32
-8.93452e-36
-1.7827e-30
-3.39382e-34
-7.02156e-29
-1.48882e-32
-6.17096e-28
-4.81973e-31
-1.72308e-27
-4.47737e-30
-2.43984e-27
-1.29076e-29
-2.33575e-27
-1.68904e-29
-7.48525e-28
-1.47411e-29
2.09535e-29
-5.40149e-30
-6.88396e-31
-6.42299e-31
-6.02784e-31
-8.87792e-33
-2.7678e-30
-6.04156e-33
-5.89014e-29
-5.25606e-32
-1.82335e-27
9.04462e-31
7.50155e-29
-5.29443e-26
-2.4915e-51
-3.8411e-55
-8.73998e-49
-1.47981e-52
-1.50786e-46
-2.80294e-50
-1.41613e-44
-2.89033e-48
-1.12347e-42
-2.51837e-46
-8.48593e-41
-1.99855e-44
-4.41884e-39
-1.19628e-42
-2.14742e-37
-6.42546e-41
-9.1473e-36
-3.02489e-39
-3.52057e-34
-1.27022e-37
-2.18985e-32
-5.40546e-36
-7.03834e-31
-2.5216e-34
-4.77778e-30
-3.76535e-33
-1.02739e-29
-1.51134e-32
-1.11281e-29
-2.31109e-32
-7.39409e-30
-2.07642e-32
-2.62186e-30
-5.88214e-33
-2.11214e-32
-6.15554e-34
-1.02383e-32
-2.64672e-34
-3.2689e-32
-6.43345e-35
-7.83128e-31
-6.80741e-34
-2.89419e-29
9.58352e-33
1.04003e-30
-9.40846e-28
-3.84108e-55
-2.26667e-60
-1.48364e-52
-9.71513e-58
-2.81779e-50
-2.04606e-55
-2.85066e-48
-2.27511e-53
-2.64502e-46
-2.35616e-51
-2.02499e-44
-2.03602e-49
-1.21652e-42
-1.35979e-47
-6.54698e-41
-8.14407e-46
-3.09034e-39
-4.28248e-44
-1.30337e-37
-2.00807e-42
-7.07381e-36
-8.51795e-41
-4.04668e-34
-3.47281e-39
-4.567e-33
-1.74222e-37
-1.28254e-32
-3.87125e-36
-1.46086e-32
-2.2389e-35
-8.23138e-33
-4.25606e-35
-9.74622e-34
-4.12908e-35
-5.50996e-34
-1.40792e-35
-1.64764e-34
-2.80027e-37
-3.20447e-34
-7.22564e-37
-8.54845e-33
-7.39732e-36
-3.89339e-31
8.10689e-35
1.22898e-32
-1.42217e-29
-2.26631e-60
-3.59808e-64
-9.73811e-58
-1.75364e-61
-2.0556e-55
-4.19217e-59
-2.80626e-53
-5.79547e-57
-2.38391e-51
-6.18489e-55
-2.05958e-49
-6.00488e-53
-1.38021e-47
-4.52091e-51
-8.27955e-46
-3.05476e-49
-4.36443e-44
-1.81314e-47
-2.05153e-42
-9.60657e-46
-8.72486e-41
-4.60662e-44
-3.97713e-39
-2.0357e-42
-3.1779e-37
-1.11253e-40
-6.03445e-36
-3.96116e-39
-2.41089e-35
-3.57766e-38
-3.34047e-35
-8.87802e-38
-2.30753e-35
-9.62005e-38
-4.02779e-37
-4.10575e-38
-4.46434e-37
-8.10274e-40
-2.92816e-36
-6.00915e-39
-7.78582e-35
-6.87825e-38
-4.43153e-33
5.41821e-37
1.24167e-34
-1.86778e-31
-3.51118e-64
-7.64348e-69
-1.70923e-61
-4.21319e-66
-4.10432e-59
-1.13934e-63
-5.83641e-57
-2.05224e-61
-6.24316e-55
-2.49791e-59
-6.06721e-53
-2.76168e-57
-4.58151e-51
-2.37397e-55
-3.1004e-49
-1.83092e-53
-1.84409e-47
-1.24179e-51
-9.79088e-46
-7.52433e-50
-4.70457e-44
-4.12945e-48
-2.11893e-42
-2.07892e-46
-1.95033e-40
-1.09738e-44
-6.87862e-39
-6.29158e-43
-4.19518e-38
-1.12623e-41
-7.07251e-38
-4.59013e-41
-5.65519e-38
-6.24404e-41
-1.05818e-39
-4.55948e-41
-1.48666e-39
-1.11873e-41
-2.10906e-38
-4.20178e-41
-6.08704e-37
-5.8572e-40
-4.63206e-35
2.87749e-39
1.06148e-36
-2.10707e-33
-7.64346e-69
-2.49452e-74
-4.22082e-66
-1.59432e-71
-1.14356e-63
-4.99527e-69
-2.06368e-61
-1.04235e-66
-2.51854e-59
-1.47122e-64
-2.78686e-57
-1.88165e-62
-2.40062e-55
-1.8807e-60
-1.8549e-53
-1.68424e-58
-1.26033e-51
-1.32635e-56
-7.65036e-50
-9.33774e-55
-4.20597e-48
-5.95799e-53
-2.12498e-46
-3.48409e-51
-1.52508e-44
-1.88535e-49
-1.21504e-42
-1.00435e-47
-1.59801e-41
-6.67707e-46
-4.12352e-41
-1.85385e-44
-4.17244e-41
-1.08331e-43
-1.30684e-41
-1.79839e-43
-1.49181e-41
-1.53398e-43
-1.29766e-40
-2.24657e-43
-4.72555e-39
-3.71288e-42
-7.33837e-37
8.84748e-42
7.7336e-39
-2.03862e-35
-2.49441e-74
-1.1889e-78
-1.59679e-71
-9.04997e-76
-5.01116e-69
-3.36492e-73
-1.04734e-66
-8.32246e-71
-1.48148e-64
-1.39212e-68
-1.89788e-62
-2.06618e-66
-1.8985e-60
-2.49683e-64
-1.70303e-58
-2.65392e-62
-1.34329e-56
-2.4805e-60
-9.47202e-55
-2.07391e-58
-6.05315e-53
-1.57249e-56
-3.54519e-51
-1.0934e-54
-1.92174e-49
-7.03575e-53
-1.19204e-47
-4.24242e-51
-1.45876e-45
-3.26448e-49
-3.30434e-44
-1.57537e-47
-1.1871e-43
-1.55407e-46
-1.44592e-43
-3.64487e-46
-1.53218e-43
-3.92694e-46
-6.16567e-43
-1.16226e-45
-2.2684e-41
-1.95286e-44
-5.15446e-39
-1.35152e-44
5.16909e-41
-1.78138e-37
-1.1889e-78
-3.04668e-84
-9.06185e-76
-2.89314e-81
-3.37389e-73
-1.32485e-78
-8.33315e-71
-4.00783e-76
-1.40174e-68
-8.17418e-74
-2.08093e-66
-1.49953e-71
-2.51764e-64
-2.21808e-69
-2.67906e-62
-2.88528e-67