/*--------------------------------*- C++ -*----------------------------------*\
| =========                 |                                                 |
| \\      /  F ield         | OpenFOAM: The Open Source CFD Toolbox           |
|  \\    /   O peration     | Version:  5.x                                   |
|   \\  /    A nd           | Web:      www.OpenFOAM.org                      |
|    \\/     M anipulation  |                                                 |
\*---------------------------------------------------------------------------*/
FoamFile
{
    version     2.0;
    format      ascii;
    class       volScalarField;
    location    "0.2";
    object      alpha.water;
}
// * * * * * * * * * * * * * * * * * * * * * * * * * * * * * * * * * * * * * //

dimensions      [0 0 0 0 0 0 0];

internalField   nonuniform List<scalar> 
2268
(
1
1
1
1
1
1
1
1
1
1
1
1
1
1
1
1
1
1
1
1
1
0.879841
0.595778
0.999999
1
1
1
1
1
1
1
1
1
1
1
1
1
1
1
1
1
1
1
1
0.990571
0.924435
1
1
1
1
1
1
1
1
1
1
1
1
1
1
1
1
1
1
1
1
1
0.999999
0.932013
1
1
1
1
1
1
1
1
1
1
1
1
1
1
1
1
1
1
1
1
1
1
0.870779
1
1
1
1
1
1
1
1
1
1
1
1
1
1
1
1
1
1
1
1
1
1
0.847301
1
1
1
1
1
1
1
1
1
1
1
1
1
1
1
1
1
1
1
1
1
1
0.923234
1
1
1
1
1
1
1
1
1
1
1
1
1
1
1
1
1
1
1
1
1
1
0.999789
1
1
1
1
1
1
1
1
1
1
1
1
1
1
1
1
1
1
1
0.999999
0.999999
1
1
1.06051e-19
1.0867e-19
3.81294e-20
3.33093e-21
6.68532e-23
8.51787e-25
3.22326e-26
1.64467e-27
6.61881e-29
2.14304e-30
5.99523e-32
1.43903e-33
2.87874e-35
4.71109e-37
6.08236e-39
5.95358e-41
4.03898e-43
1.59874e-45
2.35418e-48
6.83302e-18
1.20222e-17
4.33849e-18
3.93227e-19
8.98933e-21
1.54839e-22
4.90708e-24
2.01871e-25
7.32569e-27
2.23319e-28
5.8942e-30
1.33535e-31
2.5267e-33
3.88893e-35
4.6536e-37
4.064e-39
2.26106e-41
5.30365e-44
2.79356e-48
2.75974e-16
7.9659e-16
3.71918e-16
3.12304e-17
7.44516e-19
1.46209e-20
3.56999e-22
1.06918e-23
3.15772e-25
8.38293e-27
1.98173e-28
4.07679e-30
7.05496e-32
9.90299e-34
1.06862e-35
7.98992e-38
3.60346e-40
6.10509e-43
1.48851e-48
1.1834e-14
6.17769e-14
6.63976e-14
3.59283e-15
5.34909e-17
1.0133e-18
2.54197e-20
5.15164e-22
1.07896e-23
2.36506e-25
4.84853e-27
8.85942e-29
1.38078e-30
1.74252e-32
1.69379e-34
1.16235e-36
4.72221e-39
5.95584e-42
8.36006e-48
7.52958e-13
4.1998e-12
2.58611e-12
1.24889e-13
1.39421e-15
2.66158e-17
1.06252e-18
2.22812e-20
3.24296e-22
5.25028e-24
9.05553e-26
1.45175e-27
2.0425e-29
2.3795e-31
2.13867e-33
1.3833e-35
5.22048e-38
4.9488e-41
5.22519e-47
1.10307e-11
5.74835e-11
1.18442e-11
6.57193e-13
1.16879e-14
2.31732e-16
9.28964e-18
2.68716e-19
5.47807e-21
7.66037e-23
1.20097e-24
1.78812e-26
2.3418e-28
2.54156e-30
2.23428e-32
1.41808e-34
4.7614e-37
1.88006e-40
1.04682e-46
4.93704e-11
8.55482e-11
2.71215e-11
8.60741e-13
4.75324e-14
1.36313e-15
2.00536e-17
6.53687e-19
2.18494e-20
5.39869e-22
9.98051e-24
1.55406e-25
2.00627e-27
2.17204e-29
1.90196e-31
1.15201e-33
3.73656e-36
1.82119e-40
8.13649e-47
9.74567e-37
2.96806e-13
1.173e-11
3.71976e-13
3.27999e-14
1.00376e-14
8.56255e-18
2.57037e-20
2.10602e-21
1.87964e-21
8.01744e-23
1.07923e-24
1.51613e-26
1.66877e-28
1.33341e-30
6.66782e-33
1.30452e-35
3.24879e-40
1.66395e-46
1
1
1
1
1
1
1
1
1
1
1
1
1
1
1
1
1
1
1
1
0.999999
1
1
1
1
1
1
1
1
1
1
1
1
1
1
1
1
1
1
1
1
1
1
1
1
0.999999
1
1
1
1
1
1
1
1
1
1
1
1
1
0.999999
0.999997
0.999989
0.999982
0.999981
0.998986
0.999999
1
1
0.99999
1
1
1
1
1
1
1
1
1
1
1
0.999999
0.999997
0.999987
0.999925
0.999688
0.997632
0.928083
0.821886
0.606836
0.498395
0.596334
0.856462
1
1
1
1
1
1
1
1
1
0.999999
0.999998
0.999991
0.999947
0.999743
0.99868
0.87347
0.583505
0.143825
0.000202244
0.00404905
0.00361807
0.0152058
0.102585
1
1
1
1
1
1
0.999999
0.999999
0.999996
0.99999
0.999962
0.999855
0.999251
0.979342
0.648735
0.0969146
0.000351768
5.09423e-05
7.20248e-06
1.11065e-06
1.92431e-05
0.000195926
0.00095506
1
0.999998
0.999998
0.999998
0.999997
0.999995
0.999992
0.999981
0.999946
0.999856
0.999489
0.996988
0.869393
0.369976
0.00121559
0.000262456
5.4021e-05
8.08901e-06
1.17174e-06
3.51987e-07
-9.89641e-08
1.07434e-05
6.82228e-05
1
0.999977
0.999978
0.999973
0.999958
0.999932
0.999883
0.999729
0.999271
0.995109
0.904892
0.589223
0.130166
0.000139198
0.000270944
6.52687e-05
1.01615e-05
1.37783e-06
3.68384e-07
2.36548e-07
2.98984e-08
-6.13531e-07
4.89878e-06
1
0.999696
0.999693
0.999609
0.999408
0.999054
0.995651
0.953397
0.822671
0.542412
0.202774
7.00345e-05
1.63746e-05
1.04493e-05
0.000227399
0.00144685
0.000529099
8.83232e-06
2.26436e-07
3.57804e-08
2.16452e-08
-3.07882e-08
2.50141e-07
0.988161
0.929985
0.927469
0.893512
0.825988
0.716602
0.540603
0.31287
0.108445
2.3097e-06
2.33478e-06
6.24904e-06
9.83042e-06
9.54601e-06
0.00144963
0.0041139
0.00220354
1.35089e-05
2.9018e-07
2.17129e-08
8.25811e-09
3.75097e-10
6.96627e-09
0.436411
0.257281
0.247337
0.191776
0.119101
0.0472722
-6.13266e-11
-1.07489e-11
-1.81436e-08
4.63239e-09
1.54452e-06
2.68097e-06
6.06312e-06
9.57519e-06
0.00266111
0.0041139
0.00299526
5.55442e-05
1.9264e-07
7.10161e-09
1.04983e-09
9.30665e-10
6.36898e-07
-8.1313e-20
-2.9857e-19
-5.96929e-57
2.69967e-20
4.84704e-18
4.0371e-16
1.79816e-14
1.16801e-13
3.1312e-12
-1.71226e-10
-3.03223e-08
2.42995e-06
7.50024e-06
9.52848e-06
0.00154876
0.0041139
0.00299032
5.30391e-05
6.79093e-08
2.05463e-09
8.29415e-10
8.86948e-10
1.11113e-07
-5.05231e-19
-1.82762e-18
0
4.5563e-18
2.85266e-16
1.59996e-14
1.17276e-13
9.09547e-14
1.49315e-11
-1.03294e-11
-1.15843e-07
0.000381514
0.000229258
1.18671e-05
0.00125115
0.00407874
0.00240323
1.14693e-05
2.4057e-09
6.43771e-10
8.19903e-10
9.90468e-10
3.98878e-08
-7.23533e-19
-2.35233e-18
3.05172e-18
5.04014e-16
3.52379e-14
1.65468e-12
1.59761e-12
8.70229e-11
1.42779e-10
3.5912e-09
0.000177004
0.000761977
0.000765866
2.93216e-05
0.00141027
0.00403102
0.00133561
9.3861e-09
2.86944e-10
5.77722e-10
7.38653e-10
7.74496e-10
1.19408e-07
-6.772e-19
-1.65519e-18
5.01999e-17
5.92569e-15
3.6494e-13
1.01882e-11
3.59459e-11
1.52628e-09
1.3301e-08
2.82077e-08
0.000526059
0.000765892
0.000765866
6.53699e-05
0.00128008
0.00275907
8.25036e-08
2.23293e-10
5.99784e-11
5.27262e-10
6.26372e-10
1.49626e-09
2.44109e-08
-4.42203e-19
-4.83616e-20
2.3258e-16
2.54397e-14
1.74474e-12
4.29213e-11
2.34747e-10
1.96397e-09
2.22771e-09
1.15246e-07
0.000284832
0.000761977
0.000765866
0.000409053
0.00127613
0.00121585
3.77608e-09
3.61848e-11
4.30487e-11
8.49769e-11
3.80796e-10
3.12874e-09
4.45786e-08
-1.82126e-19
1.52103e-18
4.29512e-16
4.61876e-14
4.80036e-12
1.62694e-10
5.74191e-10
6.44532e-10
3.0145e-10
-7.72167e-10
-3.88321e-09
0.000191433
0.000366482
0.000232961
2.01866e-06
2.00012e-08
1.16708e-10
3.66865e-12
2.75509e-11
6.28981e-11
3.76482e-10
2.77474e-09
3.60694e-08
-5.74357e-21
1.60039e-18
2.69539e-16
2.90947e-14
6.87751e-12
2.96289e-10
1.02828e-09
7.91842e-10
9.81635e-11
9.87563e-11
1.01678e-10
1.31204e-10
3.77639e-10
2.09159e-09
6.15954e-08
5.49192e-10
1.64095e-12
8.63759e-13
1.76358e-11
9.26931e-11
2.03921e-10
9.97502e-10
1.12079e-08
0
2.39284e-20
5.59256e-18
2.01058e-15
5.9835e-12
2.81676e-10
9.488e-10
6.81398e-10
9.69685e-11
9.81635e-11
1.08339e-10
1.26018e-10
1.78319e-10
2.88774e-09
7.52286e-09
1.35289e-10
6.18401e-14
4.01992e-13
8.61053e-12
3.15717e-11
4.70235e-11
2.17904e-10
1.87953e-09
-6.31333e-37
4.08025e-21
3.94416e-18
7.28111e-16
5.61694e-13
5.0258e-11
2.25113e-10
1.77523e-10
9.44461e-11
1.73406e-10
3.67684e-10
4.16003e-10
3.94867e-10
3.20883e-10
2.77736e-11
2.99531e-13
2.40564e-14
6.7583e-14
6.86224e-13
3.92808e-12
1.52291e-11
6.75115e-11
5.74431e-10
-8.11345e-21
4.27378e-35
2.86886e-17
3.60252e-15
1.2825e-14
1.76406e-15
3.61261e-15
1.18654e-13
2.284e-11
1.86488e-10
4.66353e-10
5.61848e-10
4.8884e-10
9.95548e-11
5.34817e-14
1.89298e-14
5.1514e-15
7.78605e-15
3.45865e-14
2.2191e-13
2.02407e-12
2.70091e-11
1.02298e-10
-3.90367e-20
-5.22325e-19
-2.0378e-18
-2.60454e-30
1.19491e-18
4.23326e-17
3.82192e-14
2.37254e-12
1.16096e-11
1.54493e-11
1.36928e-11
8.46397e-12
6.11188e-13
2.15936e-12
3.23723e-12
5.66163e-15
2.73429e-15
5.51663e-15
6.64969e-15
1.10331e-14
1.14724e-13
1.68523e-12
1.40383e-11
-1.72606e-20
-2.33698e-19
-9.78829e-19
-2.36837e-31
2.21754e-19
8.4459e-18
1.54657e-14
2.5817e-13
9.2306e-13
1.26665e-12
1.03757e-12
8.13378e-13
5.58357e-13
4.53127e-13
1.94576e-13
8.2347e-16
1.36997e-15
2.28178e-15
2.24409e-15
1.33316e-15
5.01634e-15
8.0106e-14
1.0493e-12
-3.7434e-21
-5.04788e-20
-2.08544e-19
-3.75257e-33
4.89839e-20
1.82437e-18
1.94267e-15
9.887e-14
6.77375e-13
1.32728e-12
1.35646e-12
1.17744e-12
3.34035e-13
5.82258e-14
3.87081e-15
1.59284e-16
2.26521e-16
3.78937e-16
3.75648e-16
1.90963e-16
1.93312e-16
3.87502e-15
6.37805e-14
0
1.92667e-41
1.68432e-57
2.91004e-24
2.083e-22
8.40048e-21
6.6006e-18
4.25925e-15
9.04286e-14
4.27394e-13
7.9117e-13
7.20839e-13
4.43427e-13
8.58721e-14
5.67964e-15
6.6788e-17
1.86886e-17
1.46942e-17
1.63621e-17
8.58525e-18
8.22711e-18
1.8194e-16
3.22939e-15
0
1.18688e-30
1.61618e-28
-1.32124e-26
1.28718e-24
-2.83422e-22
4.94186e-21
6.03788e-18
4.08164e-16
3.10643e-15
7.10326e-15
8.5775e-15
5.16196e-15
1.2372e-15
3.26203e-16
9.5963e-17
1.41174e-17
1.95099e-19
1.96471e-19
1.01824e-19
3.6921e-19
7.55546e-18
1.4694e-16
0
3.17789e-34
3.90913e-32
-1.40251e-28
6.98441e-29
1.4789e-26
9.93294e-24
3.55526e-20
2.58981e-18
2.26517e-17
6.42172e-17
9.51157e-17
1.01474e-16
6.01095e-17
3.36252e-17
2.09337e-17
5.93486e-18
1.75805e-22
1.5717e-21
1.81736e-21
1.25736e-20
2.67198e-19
5.85975e-18
2.80368e-52
-4.3048e-37
-1.46081e-34
-5.41619e-32
3.34657e-31
1.75116e-29
1.11523e-27
1.62383e-25
3.76002e-22
3.23421e-20
3.4542e-19
1.12405e-18
1.77395e-18
1.92288e-18
9.33197e-19
1.68552e-19
2.08995e-20
-2.87224e-21
1.59842e-23
3.60125e-23
3.24026e-22
7.62407e-21
1.92304e-19
-1.03621e-40
-3.12317e-38
-4.71988e-36
4.30886e-37
3.4292e-35
2.16437e-33
1.16254e-31
1.04373e-29
1.14346e-25
5.18595e-23
1.03079e-21
4.84397e-21
9.19207e-21
1.07351e-20
6.53246e-21
8.30544e-22
-1.39787e-22
-1.91988e-22
2.88524e-25
4.68288e-25
6.46431e-24
1.72311e-22
4.99601e-21
1.63292e-59
3.73418e-45
6.48866e-43
7.52078e-41
4.73642e-39
4.48727e-37
-2.38092e-35
2.42482e-33
6.34998e-31
2.72301e-27
3.07291e-25
4.42871e-24
1.81571e-23
3.33674e-23
3.9473e-23
2.93628e-23
6.20409e-24
-3.14606e-25
8.75186e-27
5.45823e-27
1.04433e-25
3.13816e-24
1.04262e-22
1.43487e-64
6.65217e-49
1.27353e-46
-1.26464e-43
5.84519e-43
-5.12106e-39
7.81023e-39
8.0909e-37
3.87034e-35
1.97852e-32
5.0319e-29
3.42569e-27
3.87203e-26
1.26444e-25
1.88687e-25
1.93925e-25
8.58426e-26
2.54449e-26
2.42678e-28
5.67244e-29
1.42108e-27
4.71028e-26
1.78487e-24
4.8709e-69
4.57012e-54
-1.5193e-51
-6.14924e-47
-1.54785e-46
1.29318e-45
9.3182e-44
8.28364e-42
5.75815e-40
9.37517e-37
9.19834e-33
1.72935e-30
3.39291e-29
1.55465e-28
2.70468e-28
2.85114e-28
9.67338e-29
1.30429e-29
7.60392e-30
5.21747e-31
1.61675e-29
5.89791e-28
2.56432e-26
1.68297e-74
-3.35531e-57
-1.63985e-54
-7.87521e-52
4.12745e-51
3.99553e-49
3.24502e-47
4.22605e-45
2.61611e-43
1.42267e-41
8.40373e-40
2.92386e-36
1.18754e-33
4.00306e-32
2.7458e-31
6.09218e-31
7.15787e-31
3.07481e-31
7.54209e-33
1.10538e-32
1.55726e-31
6.32844e-30
3.1062e-28
-6.41518e-62
-2.95417e-59
-6.78201e-57
1.26415e-57
1.73519e-55
1.91611e-53
1.7761e-51
2.58697e-49
1.86712e-47
1.19084e-45
6.80524e-44
1.80988e-40
5.99017e-37
4.12777e-35
4.56043e-34
1.32198e-33
1.72328e-33
9.17607e-34
1.86706e-35
1.04787e-34
1.37307e-33
6.71182e-32
3.09296e-30
-1.1649e-82
9.96692e-68
3.15307e-65
6.66235e-63
1.05934e-60
1.28917e-58
-3.00593e-55
2.36922e-54
2.06102e-52
1.52487e-50
1.0147e-48
2.12074e-45
2.76002e-41
6.1086e-39
1.47484e-37
7.08921e-37
1.15348e-36
1.05491e-36
3.16718e-37
7.14151e-37
1.22148e-35
1.17626e-33
2.38425e-32
-1.82853e-87
5.84456e-72
2.19486e-69
5.48259e-67
8.85803e-65
-5.68587e-61
2.08233e-60
4.12428e-58
3.99887e-56
3.51185e-54
2.8335e-52
2.08694e-50
1.81509e-48
1.28804e-44
6.66327e-42
2.87043e-40
2.06717e-39
4.28404e-39
4.7741e-39
4.11633e-39
9.13654e-38
6.81597e-36
1.49332e-34
-6.93215e-92
1.92189e-77
-1.64188e-74
-1.77058e-70
-2.06262e-67
1.17812e-67
1.83969e-65
4.66381e-63
5.56769e-61
5.97279e-59
5.89126e-57
5.40754e-55
4.59326e-53
3.83866e-49
2.5519e-45
2.43268e-43
3.0331e-42
8.8572e-42
1.21182e-41
2.81542e-41
5.32262e-40
2.54143e-38
9.50131e-37
1.33944e-97
-7.39373e-81
-7.10397e-78
-3.0969e-74
3.4492e-75
8.28157e-73
1.66791e-70
5.53393e-68
8.48987e-66
1.16757e-63
1.47645e-61
1.73775e-59
1.89908e-57
2.09757e-55
3.86158e-51
1.22777e-47
7.96396e-46
8.19857e-45
2.78852e-44
1.48045e-43
2.64405e-42
7.91018e-41
5.59967e-39
-4.42928e-88
-5.23747e-85
-3.00971e-82
7.71886e-83
3.27432e-80
1.11179e-77
3.16036e-75
1.49933e-72
3.20507e-70
6.17979e-68
1.09397e-65
1.79989e-63
2.78209e-61
4.03772e-59
5.90956e-57
6.21658e-53
1.07065e-49
6.9113e-48
7.99659e-47
5.3304e-46
1.02469e-44
1.90439e-43
2.58932e-41
8.60664e-109
1.46534e-95
2.24512e-92
2.17492e-89
1.55615e-86
8.86751e-84
-8.59347e-80
3.37389e-78
1.21857e-75
3.934e-73
1.16427e-70
3.19645e-68
8.2271e-66
2.00422e-63
4.62896e-61
1.33561e-57
3.60874e-53
7.57128e-51
1.71149e-49
1.28609e-48
3.01912e-47
2.81725e-46
7.22096e-44
6.30817e-115
2.43141e-108
1.16432e-104
-7.29748e-97
-4.1044e-93
-1.62035e-86
-3.19382e-88
2.24646e-88
4.27804e-85
4.7348e-82
4.19627e-79
3.45241e-76
2.6629e-73
1.9426e-70
1.34668e-67
2.06959e-63
1.07616e-57
3.56781e-54
2.25658e-52
2.08704e-51
4.61995e-50
2.3652e-49
9.92079e-48
0
0
-5.21056e-110
-8.31838e-106
-9.78298e-101
-2.60978e-99
0
-4.6465e-104
-4.75802e-101
-1.08491e-95
-2.49457e-95
-2.55444e-92
-5.2315e-89
-2.67853e-86
-1.37141e-83
-2.10648e-80
1.96527e-70
4.27732e-61
1.89594e-56
1.4173e-54
1.703e-53
1.6556e-52
1.96411e-50
1
0.912287
0.0105139
0.00431454
0.999988
0.991391
0.97269
0.658988
0.999981
0.999979
0.999155
0.995405
0.999979
0.999155
0.995405
0.991133
0.21864
0.35071
0.790704
0.988461
0.00182936
0.00334262
0.0403562
0.521519
0.000211692
0.000439318
0.000887648
0.0416686
2.49426e-05
5.71227e-05
9.32199e-05
0.000888175
2.83011e-06
6.93647e-06
9.97446e-06
9.1888e-05
5.01384e-07
1.42917e-06
2.28264e-06
8.61993e-06
7.34897e-07
9.19538e-07
1.47152e-06
2.28264e-06
9.04262e-07
2.68239e-06
2.30988e-06
2.68243e-06
6.67859e-08
6.98005e-08
1.4114e-05
3.16311e-06
5.68913e-07
9.81912e-08
0.000294034
7.48654e-06
1.21787e-07
7.66936e-07
0.000447686
0.00106231
2.41619e-07
4.13435e-06
5.44404e-05
0.000459561
2.60853e-07
3.20021e-06
1.20906e-05
0.000169055
9.12004e-08
9.62247e-07
3.83272e-06
6.85774e-06
9.64156e-09
1.71722e-07
5.02448e-07
7.13451e-07
7.64085e-10
1.35935e-08
6.64233e-08
7.02429e-08
8.77762e-11
5.80365e-10
3.02498e-09
5.80237e-09
2.54195e-11
4.30243e-11
1.77275e-10
4.05058e-10
3.99362e-12
1.6213e-11
2.31616e-11
2.51547e-11
3.04198e-13
1.68349e-12
2.423e-12
1.60437e-12
1.43178e-14
9.01479e-14
1.68751e-13
1.6583e-13
6.45967e-16
4.32398e-15
9.19998e-15
4.34441e-15
2.69955e-17
1.85931e-16
4.19133e-16
1.75667e-16
9.29844e-19
6.70983e-18
1.5936e-17
6.12968e-18
2.43966e-20
1.98467e-19
5.10007e-19
1.8697e-19
4.82511e-22
4.77263e-21
1.3722e-20
5.02853e-21
7.15913e-24
9.35445e-23
3.09982e-22
1.20715e-22
8.08092e-26
1.52974e-24
5.96882e-24
2.60473e-24
7.761e-28
2.02006e-26
9.69033e-26
5.08033e-26
6.29058e-30
1.91082e-28
1.30222e-27
9.0091e-28
2.14339e-32
9.92589e-31
1.46907e-29
1.46087e-29
1.29241e-34
3.97448e-33
1.53689e-31
2.17722e-31
1.10187e-36
1.81107e-35
1.42573e-33
2.99497e-33
8.42175e-39
1.66598e-37
1.095e-35
3.81371e-35
5.71418e-41
1.38622e-39
5.43765e-38
4.49826e-37
3.40042e-43
1.0364e-41
2.55845e-40
4.90901e-39
1.68525e-45
6.8973e-44
2.20588e-42
5.13201e-41
9.92079e-48
1.68525e-45
6.8973e-44
2.20588e-42
2.94621e-13
7.9315e-12
4.4692e-10
2.20371e-11
3.67586e-13
5.81412e-14
5.4064e-15
3.46979e-17
6.21e-19
2.9649e-20
8.23832e-22
1.6318e-23
2.64595e-25
3.46199e-27
3.42067e-29
2.23259e-31
7.55125e-34
4.59759e-37
2.94579e-42
0.00810959
8.66289e-07
4.21928e-08
1.81383e-09
2.11776e-11
3.88758e-13
5.33348e-14
1.26242e-16
1.2462e-18
1.66967e-20
3.42137e-21
7.57617e-23
1.09116e-24
1.3915e-26
1.47706e-28
1.18713e-30
6.35266e-33
1.78614e-35
1.16882e-38
0.417244
0.000114671
3.24296e-06
9.39515e-08
1.72103e-09
3.27881e-11
6.64403e-13
1.06762e-14
1.26242e-16
1.2462e-18
6.55655e-20
6.47289e-22
5.1726e-24
3.8547e-26
2.67474e-28
1.77709e-30
9.83932e-33
3.76024e-35
6.72233e-38
0.920461
0.133635
0.000149324
2.90008e-06
7.18606e-08
1.43275e-09
3.60663e-11
6.17638e-13
2.70517e-14
5.25576e-16
4.60142e-18
3.73828e-20
2.48493e-22
1.71671e-24
1.10156e-26
5.34535e-29
1.73824e-31
2.84548e-34
1.14458e-38
0.954369
0.395783
0.00561404
6.37209e-05
1.60467e-06
4.30481e-08
9.38999e-10
2.15204e-11
4.97333e-13
1.11818e-14
2.17225e-16
1.8908e-18
1.27115e-20
1.0768e-22
7.44737e-25
3.86629e-27
1.3419e-29
2.32442e-32
7.21981e-38
0.921607
0.620391
0.0383989
0.000368777
1.4887e-05
4.75737e-07
1.36622e-08
3.25612e-10
6.56273e-12
1.5092e-13
4.53327e-15
4.74892e-17
3.13787e-19
2.77779e-21
2.05526e-23
1.13889e-25
4.2129e-28
7.77507e-31
2.74844e-36
0.752312
0.735007
0.10396
0.000839701
4.87383e-05
1.93815e-06
6.20783e-08
1.61286e-09
3.52841e-11
8.53126e-13
3.93322e-14
7.85714e-16
4.55853e-18
2.48577e-20
1.76061e-22
1.02746e-24
4.03233e-27
7.88675e-30
3.12998e-35
0.578281
0.680486
0.176488
0.00118803
7.57262e-05
3.16136e-06
1.0064e-07
2.64642e-09
5.98762e-11
1.57367e-12
1.75599e-13
6.30019e-15
3.89261e-17
2.3676e-19
1.24827e-21
3.68166e-24
1.36995e-26
2.82982e-29
1.32466e-34
0.420124
0.63519
0.182423
0.00112292
4.4684e-05
1.92748e-06
5.16143e-08
1.2587e-09
2.86733e-11
1.0234e-12
3.60888e-13
3.32175e-14
3.84505e-16
1.6674e-18
8.69839e-21
2.55742e-23
4.11348e-26
8.56047e-29
4.35958e-34
0.311342
0.602973
0.139493
0.000770325
2.51189e-05
2.19544e-07
6.37838e-09
1.50313e-10
4.95025e-12
1.08401e-12
4.93095e-13
5.64875e-14
1.1737e-15
7.8417e-18
4.4336e-20
1.70306e-22
1.4949e-25
2.69065e-28
1.36019e-33
0.266377
0.538194
0.120356
0.000487821
7.0857e-06
1.90623e-06
3.37788e-07
3.08076e-11
4.65947e-12
4.05585e-12
6.06347e-13
1.06173e-13
4.83335e-15
3.93366e-17
1.85869e-19
5.56261e-22
5.38549e-25
1.20578e-27
6.85156e-33
0.223594
0.493626
0.120794
0.000348239
4.56852e-06
2.08748e-06
1.97234e-06
3.7776e-08
1.77238e-11
2.8986e-12
1.58208e-12
1.42803e-13
8.35801e-15
1.5478e-16
8.37853e-19
1.49746e-21
1.78297e-24
4.09873e-27
2.60019e-32
0.0567915
0.417081
0.250118
0.00287473
2.44551e-05
1.87953e-06
9.27709e-07
1.87433e-08
7.09266e-10
3.0353e-11
2.10673e-12
4.16268e-13
2.54938e-14
4.11898e-16
2.13138e-18
7.27374e-21
1.08224e-23
1.82178e-26
1.9052e-31
0.000110479
0.349297
0.344386
0.0526908
0.000328374
2.45181e-05
3.57457e-06
1.9103e-07
5.04283e-09
1.49785e-10
9.52394e-12
3.22625e-13
3.57844e-14
1.35048e-15
1.24505e-17
4.87223e-20
5.44225e-23
9.85468e-26
6.88068e-30
0.00060954
0.119371
0.327369
0.229437
0.0131882
0.000259878
2.31872e-05
1.42342e-06
6.34373e-08
2.08678e-09
5.75595e-11
2.08872e-12
5.33836e-14
2.69843e-15
3.07528e-17
1.91794e-19
7.58387e-22
2.18523e-24
1.96142e-27
0.00179068
0.00154996
0.121743
0.162496
0.0393157
0.000388408
3.48711e-05
2.16687e-06
9.77066e-08
3.34665e-09
8.30692e-11
2.60428e-12
9.24222e-14
4.47499e-15
5.24405e-17
4.3341e-19
2.74989e-21
1.12245e-23
2.15983e-26
0.000690843
0.000855886
0.00309305
0.0100601
0.0220185
0.00277657
1.76179e-05
1.0135e-06
4.39235e-08
1.46749e-09
3.85926e-11
9.20398e-13
1.71552e-13
3.87613e-15
4.25921e-17
4.04077e-19
2.81276e-21
1.27673e-23
2.81878e-26
8.05891e-05
0.000612186
0.000594559
0.000978289
0.000659086
0.000598507
2.05501e-05
2.02636e-07
8.63975e-09
2.88099e-10
8.25449e-12
8.89291e-13
4.99688e-14
8.04217e-16
9.84701e-18
9.46102e-20
6.64244e-22
3.05834e-24
6.87444e-27
1.72593e-05
0.000105432
7.83001e-05
0.000145538
7.12864e-05
6.97258e-06
1.09994e-06
3.22758e-08
1.1247e-09
4.34963e-11
2.0273e-12
2.6091e-13
5.71151e-15
8.20764e-17
1.02978e-18
9.94081e-21
7.0092e-23
3.24203e-25
7.30748e-28
6.33809e-07
3.61926e-06
8.34258e-06
1.70016e-05
8.59412e-06
7.57137e-07
4.88262e-08
2.56526e-09
1.23046e-10
5.8818e-12
7.70656e-13
2.54536e-14
4.50814e-16
7.15784e-18
9.02899e-20
8.77778e-22
6.23517e-24
2.90541e-26
6.57993e-29
3.28683e-08
1.64442e-07
7.46543e-07
1.60853e-06
8.49354e-07
7.43737e-08
4.20779e-09
1.99971e-10
1.11866e-11
1.60222e-12
8.28368e-14
1.59828e-15
3.17836e-17
5.10767e-19
6.50519e-21
6.38661e-23
4.58286e-25
2.15797e-27
4.91997e-30
1.74838e-09
1.23189e-08
5.6746e-08
1.27299e-07
6.99735e-08
6.56978e-09
3.39077e-10
1.52805e-11
1.66349e-12
1.42131e-13
3.77545e-15
9.32145e-17
1.8789e-18
3.0442e-20
3.91297e-22
3.87894e-24
2.81165e-26
1.33802e-28
3.06388e-31
1.15786e-10
8.07039e-10
3.72208e-09
8.60646e-09
4.97868e-09
5.20434e-10
2.54129e-11
1.26402e-12
1.82282e-13
6.56334e-15
1.93078e-16
4.76253e-18
9.59175e-20
1.56789e-21
2.0344e-23
2.03605e-25
1.49019e-27
7.16502e-30
1.64057e-32
1.02482e-11
6.56615e-11
2.15197e-10
5.09609e-10
3.09805e-10
3.70351e-11
1.90032e-12
2.15276e-13
1.08473e-14
3.5025e-16
9.85971e-18
2.29033e-19
4.48168e-21
7.28828e-23
9.43342e-25
9.47506e-27
7.00368e-29
3.40329e-31
7.73166e-34
4.61372e-12
1.05592e-11
1.58666e-11
3.02177e-11
1.86446e-11
2.67976e-12
2.08346e-13
1.46306e-14
5.52796e-16
1.82185e-17
4.98962e-19
1.12477e-20
2.12283e-22
3.3219e-24
4.16922e-26
4.12583e-28
3.05809e-30
1.49471e-32
3.34883e-35
3.62327e-13
1.42587e-12
2.46228e-12
1.6751e-12
1.02256e-12
1.44314e-13
1.32724e-14
6.81005e-16
2.74286e-17
8.98426e-19
2.43059e-20
5.39916e-22
1.00051e-23
1.53646e-25
1.89804e-27
1.85054e-29
1.35228e-31
6.57133e-34
1.45426e-36
1.33212e-14
6.99266e-14
1.79851e-13
1.59791e-13
6.40039e-14
8.12528e-15
6.00523e-16
3.14772e-17
1.28726e-18
4.21901e-20
1.13551e-21
2.50083e-23
4.59152e-25
6.98831e-27
8.56209e-29
8.28767e-31
6.02437e-33
2.92974e-35
6.39783e-38
4.71254e-16
2.41359e-15
6.72444e-15
7.54618e-15
2.99289e-15
3.47577e-16
2.53427e-17
1.37822e-18
5.72569e-20
1.89063e-21
5.09572e-23
1.11989e-24
2.04729e-26
3.10053e-28
3.78141e-30
3.64837e-32
2.6488e-34
1.2937e-36
2.78181e-39
1.52318e-17
8.00084e-17
2.25165e-16
2.54769e-16
1.11981e-16
1.3287e-17
1.01798e-18
5.70896e-20
2.42192e-21
8.10317e-23
2.19976e-24
4.84955e-26
8.8697e-28
1.34216e-29
1.63489e-31
1.57605e-33
1.14473e-35
5.62437e-38
1.18838e-40
4.3961e-19
2.42275e-18
7.09798e-18
8.19143e-18
3.91225e-18
4.84788e-19
3.87254e-20
2.24695e-21
9.77668e-23
3.33009e-24
9.14888e-26
2.03246e-27
3.73446e-29
5.6662e-31
6.914e-33
6.67443e-35
4.8575e-37
2.40421e-39
4.98244e-42
1.13764e-20
6.68652e-20
2.06282e-19
2.46056e-19
1.29038e-19
1.67881e-20
1.40152e-21
8.43856e-23
3.77941e-24
1.31573e-25
3.67289e-27
8.25382e-29
1.52889e-30
2.33321e-32
2.85915e-34
2.76923e-36
2.02214e-38
1.00942e-40
2.04858e-43
2.65704e-22
1.6923e-21
5.54711e-21
6.89331e-21
4.01626e-21
5.53833e-22
4.84664e-23
3.036e-24
1.40387e-25
5.0116e-27
1.42629e-28
3.25279e-30
6.09244e-32
9.37598e-34
1.15633e-35
1.12556e-37
8.25588e-40
4.16018e-42
8.25787e-45
5.61135e-24
3.94397e-23
1.38932e-22
1.80911e-22
1.18408e-22
1.74692e-23
1.6077e-24
1.05027e-25
5.02726e-27
1.84546e-28
5.36979e-30
1.24623e-31
2.36617e-33
3.6803e-35
4.57643e-37
4.4832e-39
3.30622e-41
1.68265e-43
3.26433e-46
1.07109e-25
8.46438e-25
3.22925e-24
4.54337e-24
3.27836e-24
5.28612e-25
5.13393e-26
3.50591e-27
1.74121e-28
6.58863e-30
1.96481e-31
4.65119e-33
8.97116e-35
1.41291e-36
1.77422e-38
1.75127e-40
1.29948e-42
6.68091e-45
1.26628e-47
1.86285e-27
1.68937e-26
6.98604e-26
1.09899e-25
8.5543e-26
1.53942e-26
1.58362e-27
1.13313e-28
5.8519e-30
2.28734e-31
7.00534e-33
1.69484e-34
3.32686e-36
5.31382e-38
6.747e-40
6.71676e-42
5.01764e-44
2.60588e-46
4.82552e-49
2.96296e-29
3.16008e-28
1.43046e-27
2.52704e-27
2.14272e-27
4.32856e-28
4.73455e-29
3.55815e-30
1.91464e-31
7.7452e-33
2.44053e-34
6.04454e-36
1.20933e-37
1.96151e-39
2.52096e-41
2.53313e-43
1.90594e-45
9.99639e-48
1.80912e-50
4.30583e-31
5.55364e-30
2.79056e-29
5.54897e-29
5.1821e-29
1.17931e-29
1.37675e-30
1.08929e-31
6.11911e-33
2.56613e-34
8.33205e-36
2.11555e-37
4.31941e-39
7.12207e-41
9.2731e-43
9.41084e-45
7.13393e-47
3.77703e-49
6.68449e-52
5.71966e-33
9.20702e-32
5.17424e-31
1.1788e-30
1.21163e-30
3.12528e-31
3.90832e-32
3.26303e-33
1.91697e-34
8.3464e-36
2.79622e-37
7.28692e-39
1.51988e-40
2.54976e-42
3.36554e-44
3.45125e-46
2.63639e-48
1.40819e-50
2.43914e-53
6.98216e-35
1.44969e-33
9.20913e-33
2.42305e-32
2.76196e-32
8.0903e-33
1.08744e-33
9.60065e-35
5.908e-36
2.67415e-37
9.25414e-39
2.47757e-40
5.28333e-42
9.02397e-44
1.20812e-45
1.25228e-47
9.64073e-50
5.19126e-52
8.80974e-55
7.88746e-37
2.17847e-35
1.58396e-34
4.83221e-34
6.18061e-34
2.0556e-34
2.97881e-35
2.78619e-36
1.79841e-37
8.47142e-39
3.03084e-40
8.3423e-42
1.81988e-43
3.16618e-45
4.30087e-47
4.5072e-49
3.497e-51
1.89671e-53
3.15729e-56
8.63515e-39
3.13035e-37
2.61104e-36
9.00732e-36
1.15091e-35
4.77253e-36
7.75746e-37
7.83766e-38
5.37009e-39
2.65355e-40
9.85201e-42
2.78995e-43
6.23002e-45
1.10457e-46
1.52293e-48
1.61399e-50
1.26214e-52
6.89e-55
1.12656e-57
1.16145e-40
3.51175e-39
5.51128e-38
5.51206e-37
2.60071e-36
3.94833e-37
3.89227e-38
2.63135e-39
1.29159e-40
4.80703e-42
1.57247e-43
4.59727e-45
1.05408e-46
1.90983e-48
2.67942e-50
2.87827e-52
2.27349e-54
1.25172e-56
2.01585e-59
)
;

boundaryField
{
    leftWall
    {
        type            zeroGradient;
    }
    rightWall
    {
        type            zeroGradient;
    }
    lowerWall
    {
        type            zeroGradient;
    }
    atmosphere
    {
        type            inletOutlet;
        inletValue      uniform 0;
        value           nonuniform List<scalar> 
46
(
0
0
0
0
0
0
0
0
0
0
0
0
0
0
0
0
0
0
0
0
0
0
1.96411e-50
9.92079e-48
1.68525e-45
6.8973e-44
2.20588e-42
1.16145e-40
3.51175e-39
5.51128e-38
5.51206e-37
2.60071e-36
3.94833e-37
3.89227e-38
2.63135e-39
1.29159e-40
4.80703e-42
1.57247e-43
4.59727e-45
1.05408e-46
1.90983e-48
2.67942e-50
2.87827e-52
2.27349e-54
1.25172e-56
2.01585e-59
)
;
    }
    defaultFaces
    {
        type            empty;
    }
}


// ************************************************************************* //
