/*--------------------------------*- C++ -*----------------------------------*\
| =========                 |                                                 |
| \\      /  F ield         | OpenFOAM: The Open Source CFD Toolbox           |
|  \\    /   O peration     | Version:  5.x                                   |
|   \\  /    A nd           | Web:      www.OpenFOAM.org                      |
|    \\/     M anipulation  |                                                 |
\*---------------------------------------------------------------------------*/
FoamFile
{
    version     2.0;
    format      ascii;
    class       volScalarField;
    location    "0.2";
    object      p;
}
// * * * * * * * * * * * * * * * * * * * * * * * * * * * * * * * * * * * * * //

dimensions      [1 -1 -2 0 0 0 0];

internalField   nonuniform List<scalar> 
2268
(
2102.71
2110.98
2113.71
2112.6
2109.5
2106.04
2102.91
2100.31
2098.46
2097.74
2098.86
2103.05
2112.22
2129.19
2157.9
2204.28
2274.41
2371.91
2494.53
2624.25
2723.93
2745.92
2792.69
2042.52
2050.68
2053.34
2052.18
2049.06
2045.58
2042.39
2039.69
2037.69
2036.78
2037.65
2041.52
2050.28
2066.69
2094.48
2137.86
2201.74
2292.1
2409.95
2542.68
2652.74
2676.06
2743.05
1980.98
1988.96
1991.47
1990.19
1987.04
1983.5
1980.19
1977.29
1974.99
1973.68
1974.05
1977.28
1985.23
2000.54
2026.76
2068.13
2129.49
2213.76
2320.71
2441.5
2560.32
2632.43
2737.57
1918.12
1925.85
1928.12
1926.68
1923.45
1919.82
1916.33
1913.12
1910.38
1908.47
1908.07
1910.34
1917.05
1930.75
1954.83
1993.43
2050.9
2129.75
2229.28
2340.9
2460.48
2570.64
2710.47
1853.98
1861.4
1863.35
1861.68
1858.34
1854.59
1850.83
1847.19
1843.84
1841.11
1839.68
1840.65
1845.69
1857.22
1878.5
1913.49
1966.3
2039.35
2132.56
2238.94
2355.42
2475.37
2634.95
1788.59
1795.67
1797.21
1795.24
1791.76
1787.83
1783.72
1779.52
1775.37
1771.61
1768.85
1768.14
1771.04
1779.81
1797.52
1828.02
1875.35
1941.87
2028
2128.39
2237.42
2346.62
2482.56
1722.01
1728.71
1729.73
1727.39
1723.74
1719.58
1715.02
1710.12
1705
1699.98
1695.62
1692.88
1693.15
1698.51
1711.82
1736.78
1777.38
1836.14
1913.67
2004.86
2099.61
2181.07
2229.5
1654.33
1660.53
1660.88
1658.13
1654.3
1649.86
1644.77
1639.03
1632.77
1626.28
1620.08
1614.98
1612.22
1613.63
1621.79
1640.14
1672.59
1721.64
1788.35
1866.23
1938.31
1981.96
1849.04
5.10368
5.08739
5.07757
5.06772
5.05338
5.03372
5.00743
4.9744
4.93555
4.89262
4.84762
4.80266
4.75967
4.72022
4.68565
4.65694
4.63483
4.61985
4.6123
5.04735
5.0279
5.01866
5.00958
4.99544
4.97599
4.94973
4.91655
4.8774
4.83411
4.78874
4.74344
4.70016
4.66047
4.62572
4.59688
4.57468
4.55964
4.55206
4.99108
4.96809
4.95996
4.9523
4.93848
4.91944
4.89324
4.85974
4.82001
4.77597
4.72986
4.68385
4.63998
4.59981
4.56468
4.53558
4.51319
4.49802
4.49039
4.9388
4.90788
4.90115
4.89593
4.88247
4.8641
4.83801
4.80403
4.76338
4.71822
4.67095
4.62389
4.57911
4.53823
4.50254
4.47303
4.45035
4.43501
4.42729
4.88836
4.8465
4.84329
4.83962
4.82739
4.81008
4.78416
4.7495
4.70757
4.66084
4.612
4.56351
4.51752
4.47568
4.43925
4.40919
4.38615
4.37058
4.36275
4.8412
4.78356
4.78621
4.78376
4.77321
4.75749
4.73183
4.69623
4.6526
4.60384
4.55299
4.50268
4.45517
4.41212
4.37477
4.34405
4.32055
4.3047
4.29674
4.79621
4.71685
4.73011
4.72834
4.71993
4.70655
4.68122
4.64438
4.59854
4.54722
4.49386
4.44134
4.39199
4.3475
4.30907
4.27756
4.25354
4.23735
4.22922
4.75339
4.65034
4.67453
4.67287
4.66832
4.65755
4.63259
4.59408
4.54544
4.49094
4.43455
4.37941
4.32791
4.28176
4.24209
4.20968
4.18505
4.16849
4.16019
1546.77
1552.03
1551.37
1547.92
1543.64
1538.6
1532.46
1525.14
1516.77
1507.58
1497.94
1488.45
1480.07
1474.15
1472.71
1478.88
1496.54
1526.82
1572.61
1621.69
1639.58
1570.3
990.205
1396.01
1399.89
1397.75
1393.19
1387.88
1381.37
1373.05
1362.73
1350.42
1336.17
1320.02
1302.11
1282.66
1261.8
1240.42
1221.86
1212.71
1214.47
1217.51
1219.35
1190.31
1083.79
778.908
1241.62
1243.89
1240.05
1234.21
1227.54
1219.01
1207.82
1193.69
1176.44
1155.77
1131.35
1102.48
1068.2
1026.67
976.188
918.023
862.73
810.634
775.909
724.107
668.432
639.954
586.193
1084.37
1084.87
1079.27
1072.04
1063.62
1052.52
1037.82
1019.11
995.89
967.45
932.959
890.532
838.711
771.837
679.71
557.239
415.876
231.869
67.7
44.4169
46.2578
85.8739
159.905
925.031
923.71
916.433
907.713
897.205
883.079
864.355
840.424
810.383
773.241
727.548
671.031
601.993
502.45
351.474
173.422
52.3721
8.19514
-2.93351
-5.44843
-3.89603
-1.27185
4.5147
764.323
761.115
752.352
742.094
729.267
711.864
688.894
659.523
622.638
576.836
520.407
449.496
356.251
218.219
67.7977
8.75339
-3.15482
-5.08583
-5.52649
-5.90302
-6.02458
-6.32431
-6.91188
603.299
598.038
588.11
576.467
561.418
540.935
513.982
479.735
436.959
381.985
313.007
221.158
114.008
22.8343
-0.922561
-4.2712
-5.30457
-5.8009
-6.05056
-6.36899
-6.80404
-7.36586
-7.96944
443.855
436.785
426.226
413.286
396.326
373.238
342.333
303.111
254.077
188.074
110.979
31.1142
1.9242
-4.46613
-4.32075
-5.1021
-5.77465
-6.1689
-6.44155
-6.79492
-7.28844
-7.85737
-8.37715
285.964
277.531
266.442
251.486
232.456
207.283
172.618
129.089
84.3145
31.7523
7.80635
-4.82478
-5.27325
-4.76525
-4.66596
-5.39635
-6.24253
-6.57794
-6.75093
-7.02198
-7.46728
-7.98534
-8.39856
130.821
118.209
108.545
95.1607
79.1605
60.8962
36.2057
16.4201
3.15398
-4.00493
-4.70972
-4.72593
-4.97067
-4.95569
-4.91013
-5.74459
-6.69279
-6.85161
-6.94843
-7.16916
-7.53541
-7.93406
-8.25485
24.5523
12.9758
12.2544
8.74951
3.98004
-0.947322
-3.17173
-3.49666
-3.80675
-4.13156
-4.64513
-5.02381
-5.27779
-5.2881
-5.28385
-6.08131
-6.94869
-7.0262
-7.07199
-7.2495
-7.54543
-7.87099
-8.16874
-3.34461
-3.34368
-3.38339
-3.44935
-3.53966
-3.64281
-3.63653
-3.75373
-4.01418
-4.40447
-4.90198
-5.40937
-5.79689
-5.85433
-5.82724
-6.27109
-7.07883
-7.14038
-7.12726
-7.27303
-7.52764
-7.83441
-8.16674
-3.47659
-3.47755
-3.51249
-3.56449
-3.63131
-3.7121
-3.79161
-3.93541
-4.20612
-4.64178
-5.22945
-5.91025
-6.48586
-6.56108
-6.37949
-6.57197
-7.17769
-7.16023
-7.11951
-7.24687
-7.47706
-7.79177
-8.19313
-3.61649
-3.62236
-3.64946
-3.69323
-3.75066
-3.82497
-3.92699
-4.09147
-4.3836
-4.85241
-5.54273
-6.42711
-7.16828
-7.17897
-6.92202
-7.00791
-7.24875
-7.08856
-7.06568
-7.17599
-7.39149
-7.71343
-8.17316
-3.74974
-3.76587
-3.78636
-3.82269
-3.87427
-3.94573
-4.05058
-4.21713
-4.51265
-4.98886
-5.69891
-6.64592
-7.57344
-7.42014
-7.24988
-7.26184
-7.15433
-6.98475
-6.96887
-7.06732
-7.26799
-7.58354
-8.06952
-3.87491
-3.89332
-3.91187
-3.94511
-3.99305
-4.06118
-4.15989
-4.31392
-4.58635
-5.03029
-5.6836
-6.55862
-7.32222
-7.38741
-7.30809
-7.1501
-6.94504
-6.82077
-6.82769
-6.92148
-7.10107
-7.38496
-7.82437
-3.99318
-4.00953
-4.02749
-4.05868
-4.10372
-4.16753
-4.25732
-4.39178
-4.62044
-4.98909
-5.5077
-6.14187
-6.68944
-6.93602
-6.96677
-6.8384
-6.67926
-6.61778
-6.6478
-6.73487
-6.8835
-7.10876
-7.4439
-4.10328
-4.11527
-4.13367
-4.16305
-4.20538
-4.26427
-4.34455
-4.45835
-4.63601
-4.91174
-5.2912
-5.71978
-6.08985
-6.33084
-6.42414
-6.40955
-6.37213
-6.38733
-6.43361
-6.51151
-6.62132
-6.7733
-6.98031
-4.20366
-4.21321
-4.23107
-4.25879
-4.29835
-4.35247
-4.42434
-4.52068
-4.65726
-4.85408
-5.11556
-5.40733
-5.66932
-5.86067
-5.97138
-6.018
-6.08434
-6.14471
-6.20258
-6.26544
-6.33496
-6.41478
-6.50257
-4.29566
-4.30403
-4.32081
-4.34677
-4.38344
-4.43294
-4.49759
-4.58115
-4.69111
-4.83625
-5.017
-5.21728
-5.41163
-5.57643
-5.69957
-5.78853
-5.86493
-5.92593
-5.97559
-6.01596
-6.04649
-6.06429
-6.05819
-4.38088
-4.38847
-4.40401
-4.42802
-4.46161
-4.50636
-4.56407
-4.63714
-4.72916
-4.84366
-4.97974
-5.12871
-5.27635
-5.40885
-5.5191
-5.60727
-5.6766
-5.72763
-5.76235
-5.77923
-5.77573
-5.74538
-5.67536
-4.46065
-4.46759
-4.48181
-4.50369
-4.534
-4.57382
-4.62446
-4.68743
-4.76447
-4.85671
-4.96255
-5.0764
-5.18989
-5.29468
-5.38536
-5.45946
-5.51558
-5.55295
-5.57089
-5.56657
-5.53602
-5.47168
-5.36302
-4.53607
-4.54236
-4.55519
-4.57484
-4.60176
-4.63667
-4.68036
-4.73371
-4.79748
-4.87174
-4.9549
-5.04304
-5.13064
-5.21214
-5.28317
-5.34041
-5.38129
-5.40388
-5.40598
-5.38419
-5.33422
-5.24966
-5.12022
-4.60803
-4.61364
-4.62504
-4.64239
-4.66596
-4.69611
-4.73329
-4.77788
-4.83011
-4.88965
-4.95497
-5.0231
-5.09009
-5.15199
-5.20515
-5.24622
-5.27234
-5.2811
-5.26967
-5.23447
-5.17154
-5.07559
-4.93935
-4.67722
-4.68213
-4.69209
-4.70717
-4.72747
-4.75314
-4.78433
-4.8211
-4.86335
-4.91053
-4.9613
-5.01337
-5.06378
-5.10938
-5.14709
-5.17391
-5.18704
-5.18393
-5.16171
-5.11712
-5.04672
-4.94647
-4.81154
-4.74421
-4.74842
-4.75696
-4.76984
-4.78704
-4.80855
-4.83432
-4.86421
-4.89789
-4.93475
-4.97358
-5.0126
-5.04946
-5.0816
-5.10639
-5.1212
-5.12353
-5.11086
-5.0806
-5.03005
-4.95644
-4.85678
-4.72792
-4.80948
-4.81302
-4.82022
-4.83101
-4.84532
-4.86304
-4.88398
-4.90786
-4.93426
-4.9625
-4.99154
-5.01988
-5.04569
-5.06684
-5.08109
-5.08617
-5.07987
-5.06
-5.02431
-4.97057
-4.8967
-4.8007
-4.68049
-4.87349
-4.8764
-4.88233
-4.89118
-4.90283
-4.91712
-4.93379
-4.95248
-4.97271
-4.99379
-5.01479
-5.03448
-5.05134
-5.06362
-5.06946
-5.06693
-5.05413
-5.02919
-4.99024
-4.93556
-4.86361
-4.77298
-4.66256
-4.9366
-4.93895
-4.9437
-4.95077
-4.96002
-4.97125
-4.98417
-4.9984
-5.01343
-5.0286
-5.04307
-5.05579
-5.06551
-5.07078
-5.07007
-5.06178
-5.04432
-5.01614
-4.97573
-4.92176
-4.85313
-4.76891
-4.66859
-4.99917
-5.001
-5.00469
-5.01015
-5.01724
-5.02576
-5.03543
-5.04585
-5.05653
-5.06686
-5.07606
-5.08325
-5.08737
-5.08726
-5.08163
-5.06918
-5.0486
-5.01863
-4.97812
-4.92607
-4.86168
-4.78438
-4.69401
-5.06144
-5.06282
-5.06555
-5.06959
-5.07478
-5.08094
-5.0878
-5.095
-5.10206
-5.10843
-5.11344
-5.1163
-5.11615
-5.112
-5.10284
-5.08759
-5.06519
-5.03465
-4.99511
-4.94579
-4.88617
-4.81594
-4.73512
-5.12364
-5.12461
-5.12651
-5.12931
-5.13286
-5.137
-5.14147
-5.14595
-5.15004
-5.15322
-5.15491
-5.15446
-5.15112
-5.14409
-5.13254
-5.1156
-5.09245
-5.06232
-5.02453
-4.97853
-4.92397
-4.86072
-4.78893
-5.1859
-5.18653
-5.18773
-5.18947
-5.19164
-5.19407
-5.19655
-5.19879
-5.20045
-5.20109
-5.20022
-5.19727
-5.19164
-5.18266
-5.16967
-5.15197
-5.12892
-5.09992
-5.06446
-5.02217
-4.97282
-4.91639
-4.85307
-5.24839
-5.24872
-5.24934
-5.2502
-5.25122
-5.25224
-5.25309
-5.25353
-5.25325
-5.25191
-5.24909
-5.24434
-5.23714
-5.22698
-5.2133
-5.19557
-5.17328
-5.14598
-5.1133
-5.07497
-5.03086
-4.98102
-4.92565
-5.31123
-5.31131
-5.31145
-5.31159
-5.31168
-5.31157
-5.31112
-5.31012
-5.30835
-5.30551
-5.30128
-5.29529
-5.28712
-5.27637
-5.26261
-5.24542
-5.22441
-5.19924
-5.16964
-5.13545
-5.09657
-5.05304
-5.00518
-5.37446
-5.37435
-5.3741
-5.37368
-5.37302
-5.37203
-5.37057
-5.36849
-5.36561
-5.3617
-5.35651
-5.34975
-5.3411
-5.33026
-5.3169
-5.30069
-5.28135
-5.25863
-5.23234
-5.20236
-5.16867
-5.13128
-5.09049
-5.43813
-5.43787
-5.43732
-5.43646
-5.43523
-5.43356
-5.43135
-5.42848
-5.42483
-5.42021
-5.41444
-5.40732
-5.3986
-5.38807
-5.37548
-5.3606
-5.34323
-5.32319
-5.30035
-5.27465
-5.2461
-5.2148
-5.18059
-5.5023
-5.50193
-5.50114
-5.49994
-5.49828
-5.49611
-5.49335
-5.48994
-5.48578
-5.48075
-5.47473
-5.46758
-5.45913
-5.44923
-5.43772
-5.42444
-5.40926
-5.39206
-5.37278
-5.35136
-5.32783
-5.30223
-5.27455
-5.56709
-5.56666
-5.56568
-5.56423
-5.56224
-5.5597
-5.55656
-5.55279
-5.54833
-5.54313
-5.53709
-5.53016
-5.52223
-5.51321
-5.50301
-5.49154
-5.47872
-5.46449
-5.44881
-5.43168
-5.41311
-5.39311
-5.37171
-5.63281
-5.63236
-5.63125
-5.62961
-5.62737
-5.62456
-5.62115
-5.61715
-5.61254
-5.6073
-5.60142
-5.59487
-5.58761
-5.57963
-5.57088
-5.56134
-5.55097
-5.53977
-5.52773
-5.51488
-5.50121
-5.48675
-5.47146
-5.69909
-5.69865
-5.69747
-5.69569
-5.69329
-5.69028
-5.6867
-5.68258
-5.67793
-5.6728
-5.6672
-5.66117
-5.65473
-5.64791
-5.64072
-5.63319
-5.62535
-5.61722
-5.60884
-5.60024
-5.59146
-5.58248
-5.57324
-5.76309
-5.76289
-5.7617
-5.75983
-5.75733
-5.75423
-5.75061
-5.74653
-5.74204
-5.73722
-5.73214
-5.72688
-5.72151
-5.71611
-5.71076
-5.70551
-5.70045
-5.69562
-5.69109
-5.68691
-5.68313
-5.67975
-5.67662
-78.068
-11.1811
0.314103
3.79475
307.928
70.8306
-45.7455
-30.3588
413.507
249.113
157.657
90.359
164.326
132.71
108.207
105.671
13.1481
19.6753
26.7579
19.4564
-7.08437
-7.20245
-6.44811
-10.198
-8.2449
-8.32176
-8.24226
-7.52778
-8.60419
-8.68251
-8.89873
-8.5695
-8.57952
-8.67057
-8.89967
-9.02347
-8.44258
-8.56134
-8.76515
-9.00924
-8.40913
-8.57096
-8.76141
-8.99422
-8.46025
-8.6443
-8.79548
-8.93767
-8.57343
-8.79642
-8.92623
-8.99073
-8.6839
-8.97351
-9.19828
-9.41077
-8.5848
-8.91389
-9.22041
-9.54504
-8.30045
-8.62989
-8.945
-9.3448
-7.79559
-8.05419
-8.34056
-8.70925
-7.16885
-7.3001
-7.46293
-7.6917
-6.55503
-6.57738
-6.60292
-6.65184
-6.01802
-5.97394
-5.91729
-5.85271
-5.57959
-5.49876
-5.40035
-5.28519
-5.23897
-5.14193
-5.02803
-4.89763
-4.98593
-4.88526
-4.77031
-4.64164
-4.80589
-4.70865
-4.60004
-4.4807
-4.68488
-4.59453
-4.49539
-4.38809
-4.61092
-4.52881
-4.43997
-4.34501
-4.57422
-4.50059
-4.42181
-4.33841
-4.56707
-4.50157
-4.43212
-4.35914
-4.58341
-4.52544
-4.4644
-4.40063
-4.61843
-4.56732
-4.51378
-4.4581
-4.66836
-4.62344
-4.57658
-4.52803
-4.73024
-4.6909
-4.65001
-4.60779
-4.80176
-4.76748
-4.73197
-4.6954
-4.88112
-4.85147
-4.82084
-4.78938
-4.96693
-4.94154
-4.91538
-4.88856
-5.05808
-5.03663
-5.0146
-4.99205
-5.15366
-5.13589
-5.11769
-5.0991
-5.25285
-5.23858
-5.22398
-5.2091
-5.35503
-5.34409
-5.33291
-5.32154
-5.45964
-5.4519
-5.44402
-5.43601
-5.56617
-5.56156
-5.55687
-5.55212
-5.67426
-5.67273
-5.67118
-5.66961
4.67158
4.48561
4.58822
4.58556
4.58942
4.58439
4.56017
4.51819
4.46399
4.40342
4.34143
4.28151
4.22618
4.17709
4.13524
4.1013
4.07562
4.05842
4.04981
4.58004
4.63375
4.45699
4.44787
4.4852
4.49833
4.475
4.42434
4.35806
4.28535
4.21286
4.1444
4.08251
4.02857
3.98324
3.94687
3.91959
3.90141
3.89234
2.0017
4.79089
4.11499
4.23456
4.38899
4.43902
4.41061
4.34246
4.25689
4.16721
4.08066
4.00166
3.93209
3.87271
3.82364
3.78474
3.75581
3.73666
3.72714
14.3933
0.458372
3.37662
4.02898
4.36499
4.43402
4.37647
4.27373
4.15835
4.04539
3.94185
3.85082
3.773
3.70807
3.65536
3.61411
3.58371
3.5637
3.55378
-9.85682
-5.06296
3.57637
4.1451
4.52601
4.50613
4.37426
4.21378
4.05688
3.91493
3.79209
3.68858
3.60285
3.53299
3.47725
3.43417
3.40269
3.38209
3.37191
-53.9978
-35.2262
3.56391
4.70156
4.76521
4.62975
4.38896
4.14845
3.94127
3.76735
3.62546
3.51094
3.41904
3.3458
3.28825
3.24424
3.21232
3.19151
3.18125
-57.9577
-78.1208
2.80503
5.59762
5.17113
4.77646
4.38636
4.0575
3.79431
3.59132
3.43493
3.31375
3.21917
3.14513
3.0876
3.04391
3.01233
2.9918
2.98169
-16.5335
-88.9866
2.77558
6.57691
5.67138
4.91131
4.34504
3.90129
3.59373
3.37425
3.21381
3.09363
3.00161
2.93025
2.87499
2.83305
2.80272
2.78299
2.77327
-8.89178
-83.7034
1.73681
7.38971
5.81301
4.84061
4.12039
3.62711
3.31476
3.10543
2.95795
2.8493
2.76624
2.70144
2.65079
2.61202
2.58381
2.56536
2.55625
-9.19941
-67.0735
2.30075
6.98888
5.13732
4.32689
3.63735
3.20323
2.94637
2.78293
2.66888
2.58303
2.51511
2.46025
2.41614
2.38167
2.35622
2.33942
2.33108
-9.20255
-47.0036
0.78673
4.79288
3.64571
3.18867
2.85813
2.62411
2.49714
2.41839
2.35613
2.30147
2.25254
2.20947
2.17286
2.14321
2.12082
2.10585
2.09836
-8.54688
-31.29
-2.49598
0.747825
1.51505
1.46865
1.73367
1.89946
2.00512
2.04041
2.03733
2.01498
1.98457
1.95268
1.92313
1.89805
1.8786
1.8654
1.85875
-8.3209
-20.7853
-10.4271
-3.73359
-0.837084
-0.367818
0.619225
1.29252
1.57709
1.69456
1.73495
1.73507
1.71719
1.69316
1.66886
1.6474
1.63041
1.61876
1.61287
-9.54487
-8.59493
-14.4378
-2.40067
-1.75051
-1.48423
-0.0873102
0.905745
1.29107
1.41962
1.46511
1.46866
1.45377
1.43273
1.41121
1.39212
1.37697
1.36657
1.36131
-10.716
-7.5402
-11.6245
2.38497
-0.0553914
-0.507897
0.36789
1.00289
1.18017
1.2203
1.2268
1.21428
1.19355
1.17121
1.15034
1.13254
1.11872
1.10933
1.10461
-10.6547
-12.0319
-9.25296
-4.42886
2.13333
1.08627
1.0823
1.13775
1.09462
1.03831
0.996355
0.961747
0.931961
0.906627
0.885524
0.868605
0.855899
0.847439
0.843231
-9.58548
-10.9074
-10.7722
-5.76762
2.17431
1.91959
1.40219
1.11778
0.93824
0.822476
0.74891
0.699234
0.663384
0.636429
0.615774
0.600093
0.588716
0.581303
0.577661
-8.13753
-8.55088
-7.2565
-3.24491
0.550822
1.68479
1.22961
0.871802
0.671979
0.548672
0.470521
0.419266
0.384046
0.358888
0.340479
0.327009
0.317496
0.311412
0.308458
-6.69872
-6.27028
-4.93652
-2.38982
-0.162106
0.609966
0.563683
0.419861
0.303347
0.218768
0.160582
0.120868
0.0933368
0.0738472
0.0598362
0.0497846
0.0428116
0.0384161
0.0363051
-5.6784
-5.03329
-3.86326
-2.27671
-0.964393
-0.325083
-0.130093
-0.0966458
-0.115897
-0.145264
-0.171389
-0.191593
-0.206483
-0.217292
-0.225099
-0.230664
-0.234482
-0.236856
-0.237978
-5.03155
-4.40722
-3.49128
-2.41988
-1.52992
-0.989412
-0.716535
-0.591226
-0.539901
-0.519567
-0.512878
-0.511359
-0.511536
-0.512104
-0.512644
-0.513048
-0.513301
-0.513426
-0.513456
-4.63232
-4.08452
-3.38111
-2.61607
-1.95813
-1.49838
-1.21196
-1.04248
-0.944666
-0.88749
-0.853343
-0.831818
-0.817616
-0.807795
-0.800828
-0.795883
-0.792436
-0.790231
-0.789125
-4.39267
-3.92887
-3.37944
-2.80687
-2.29913
-1.90839
-1.6326
-1.44629
-1.32279
-1.24079
-1.18563
-1.14766
-1.12104
-1.10172
-1.08769
-1.07768
-1.07066
-1.06621
-1.06397
-4.25734
-3.86903
-3.4313
-2.98506
-2.58005
-2.24784
-1.99349
-1.80646
-1.67171
-1.57526
-1.50595
-1.45568
-1.41888
-1.39162
-1.37146
-1.35713
-1.34685
-1.34037
-1.33702
-4.19183
-3.86652
-3.51135
-3.1532
-2.8221
-2.53852
-2.3089
-2.12974
-1.99301
-1.88983
-1.81215
-1.75363
-1.70946
-1.6761
-1.6511
-1.63284
-1.61994
-1.61176
-1.60746
-4.17417
-3.9003
-3.60745
-3.31372
-3.03826
-2.79497
-2.58995
-2.4229
-2.28984
-2.18532
-2.10382
-2.04056
-1.99163
-1.95399
-1.92539
-1.90421
-1.88921
-1.87966
-1.87465
-4.19019
-3.95821
-3.71356
-3.46876
-3.23661
-3.02692
-2.84494
-2.69176
-2.56567
-2.46349
-2.38155
-2.31637
-2.26492
-2.2247
-2.19374
-2.17058
-2.15407
-2.14351
-2.13804
-4.2306
-4.03294
-3.82643
-3.61996
-3.42246
-3.24105
-3.08007
-2.94115
-2.82382
-2.72634
-2.64638
-2.58149
-2.52937
-2.48804
-2.45587
-2.43157
-2.41415
-2.40294
-2.39722
-4.28909
-4.11982
-3.94414
-3.76852
-3.59937
-3.442
-3.29996
-3.17496
-3.06722
-2.97592
-2.89962
-2.83664
-2.78531
-2.7441
-2.7117
-2.68703
-2.66923
-2.65772
-2.65191
-4.36124
-4.21577
-4.06551
-3.91527
-3.76979
-3.63308
-3.50804
-3.39631
-3.29844
-3.21414
-3.1426
-3.08271
-3.03329
-2.99319
-2.96137
-2.93696
-2.91925
-2.90776
-2.90201
-4.44394
-4.31868
-4.18976
-4.06082
-3.93543
-3.8167
-3.70695
-3.60769
-3.5196
-3.44271
-3.37663
-3.32065
-3.27396
-3.23571
-3.20513
-3.18151
-3.1643
-3.15309
-3.14753
-4.53491
-4.42705
-4.31636
-4.20562
-4.09757
-3.99462
-3.89869
-3.81106
-3.73247
-3.66313
-3.6029
-3.55137
-3.50799
-3.47218
-3.44334
-3.42094
-3.40456
-3.39384
-3.38857
-4.63246
-4.5398
-4.44493
-4.34999
-4.25711
-4.1682
-4.08479
-4.008
-3.93854
-3.8767
-3.82251
-3.77576
-3.7361
-3.70313
-3.67642
-3.65559
-3.64028
-3.63024
-3.62535
-4.73535
-4.65614
-4.57519
-4.49418
-4.41476
-4.33843
-4.26645
-4.19976
-4.139
-4.08453
-4.03643
-3.99465
-3.95897
-3.92914
-3.90485
-3.88582
-3.8718
-3.86258
-3.85812
-4.84261
-4.77546
-4.70694
-4.63836
-4.57101
-4.50609
-4.44461
-4.38736
-4.3349
-4.28757
-4.24554
-4.20881
-4.17728
-4.15078
-4.12911
-4.11208
-4.09949
-4.0912
-4.08722
-4.95348
-4.89726
-4.83998
-4.78265
-4.72628
-4.6718
-4.62003
-4.57163
-4.52707
-4.48668
-4.45062
-4.41896
-4.39165
-4.36861
-4.34971
-4.3348
-4.32376
-4.31647
-4.31301
-5.06734
-5.02117
-4.97418
-4.92715
-4.88086
-4.83604
-4.79334
-4.75328
-4.71626
-4.68257
-4.65238
-4.62576
-4.60271
-4.58321
-4.56715
-4.55446
-4.54504
-4.53881
-4.53589
-5.18371
-5.14687
-5.10941
-5.07194
-5.03503
-4.99923
-4.96505
-4.93291
-4.90311
-4.87591
-4.85145
-4.82982
-4.81104
-4.7951
-4.78195
-4.77153
-4.76379
-4.75865
-4.75628
-5.30217
-5.2741
-5.2456
-5.21709
-5.18899
-5.16171
-5.13562
-5.11103
-5.08819
-5.06728
-5.04844
-5.03173
-5.01719
-5.00482
-4.99459
-4.98648
-4.98045
-4.97643
-4.97462
-5.42238
-5.40267
-5.38267
-5.36266
-5.34294
-5.32378
-5.30543
-5.28811
-5.272
-5.25722
-5.24388
-5.23203
-5.22169
-5.21288
-5.20559
-5.1998
-5.19549
-5.19261
-5.19136
-5.54404
-5.53237
-5.52054
-5.50871
-5.49705
-5.48571
-5.47484
-5.46457
-5.45501
-5.44622
-5.43828
-5.43121
-5.42505
-5.41978
-5.41542
-5.41195
-5.40937
-5.40762
-5.40693
-5.66695
-5.66312
-5.65924
-5.65536
-5.65154
-5.64782
-5.64425
-5.64087
-5.63773
-5.63483
-5.63221
-5.62988
-5.62783
-5.62609
-5.62464
-5.62349
-5.62263
-5.62205
-5.62184
)
;

boundaryField
{
    leftWall
    {
        type            calculated;
        value           nonuniform List<scalar> 
50
(
2102.71
2042.52
1980.98
1918.12
1853.98
1788.59
1722.01
1654.33
1546.77
1396.01
1241.62
1084.37
925.031
764.323
603.299
443.855
285.964
130.821
24.5523
-3.34461
-3.47659
-3.61649
-3.74974
-3.87491
-3.99318
-4.10328
-4.20366
-4.29566
-4.38088
-4.46065
-4.53607
-4.60803
-4.67722
-4.74421
-4.80948
-4.87349
-4.9366
-4.99917
-5.06144
-5.12364
-5.1859
-5.24839
-5.31123
-5.37446
-5.43813
-5.5023
-5.56709
-5.63281
-5.69909
-5.76309
)
;
    }
    rightWall
    {
        type            calculated;
        value           nonuniform List<scalar> 
50
(
4.6123
4.55206
4.49039
4.42729
4.36275
4.29674
4.22922
4.16019
4.04981
3.89234
3.72714
3.55378
3.37191
3.18125
2.98169
2.77327
2.55625
2.33108
2.09836
1.85875
1.61287
1.36131
1.10461
0.843231
0.577661
0.308458
0.0363051
-0.237978
-0.513456
-0.789125
-1.06397
-1.33702
-1.60746
-1.87465
-2.13804
-2.39722
-2.65191
-2.90201
-3.14753
-3.38857
-3.62535
-3.85812
-4.08722
-4.31301
-4.53589
-4.75628
-4.97462
-5.19136
-5.40693
-5.62184
)
;
    }
    lowerWall
    {
        type            calculated;
        value           nonuniform List<scalar> 
62
(
2132.14
2140.41
2143.14
2142.03
2138.93
2135.47
2132.34
2129.74
2127.89
2127.17
2128.29
2132.48
2141.65
2158.62
2187.33
2233.71
2303.84
2401.34
2523.96
2653.68
2753.36
2771.81
2810.23
2792.69
2743.05
2737.57
2710.47
2634.95
2482.56
2229.5
1849.04
-15.4707
45.9311
1.03419
4.12715
5.10368
5.04735
4.99108
4.9388
4.88836
4.8412
4.79621
4.75339
5.13311
5.11682
5.107
5.09715
5.08281
5.06315
5.03686
5.00383
4.96498
4.92205
4.87705
4.83209
4.7891
4.74964
4.71508
4.68637
4.66426
4.64928
4.64172
)
;
    }
    atmosphere
    {
        type            calculated;
        value           nonuniform List<scalar> 
46
(
-5.79248
-5.79276
-5.79152
-5.78963
-5.78713
-5.78407
-5.78053
-5.77658
-5.7723
-5.7678
-5.76316
-5.75847
-5.75385
-5.74938
-5.74517
-5.74129
-5.73784
-5.73487
-5.73245
-5.73064
-5.72949
-5.72905
-5.72904
-5.72904
-5.72904
-5.72904
-5.72904
-5.72904
-5.72904
-5.72904
-5.72904
-5.72904
-5.72904
-5.72904
-5.72904
-5.72904
-5.72904
-5.72904
-5.72904
-5.72904
-5.72904
-5.72904
-5.72904
-5.72904
-5.72904
-5.72904
)
;
    }
    defaultFaces
    {
        type            empty;
    }
}


// ************************************************************************* //
