/*--------------------------------*- C++ -*----------------------------------*\
| =========                 |                                                 |
| \\      /  F ield         | OpenFOAM: The Open Source CFD Toolbox           |
|  \\    /   O peration     | Version:  5.x                                   |
|   \\  /    A nd           | Web:      www.OpenFOAM.org                      |
|    \\/     M anipulation  |                                                 |
\*---------------------------------------------------------------------------*/
FoamFile
{
    version     2.0;
    format      ascii;
    class       volScalarField;
    location    "0.2";
    object      p_rgh;
}
// * * * * * * * * * * * * * * * * * * * * * * * * * * * * * * * * * * * * * //

dimensions      [1 -1 -2 0 0 0 0];

internalField   nonuniform List<scalar> 
2268
(
2132.14
2140.41
2143.14
2142.03
2138.93
2135.47
2132.34
2129.74
2127.89
2127.17
2128.29
2132.48
2141.65
2158.62
2187.33
2233.71
2303.84
2401.34
2523.96
2653.68
2753.36
2771.81
2810.23
2130.8
2138.97
2141.63
2140.46
2137.35
2133.86
2130.67
2127.98
2125.98
2125.06
2125.94
2129.8
2138.57
2154.97
2182.77
2226.14
2290.03
2380.39
2498.24
2630.96
2741.03
2763.51
2824.67
2128.12
2136.11
2138.61
2137.34
2134.18
2130.64
2127.33
2124.43
2122.14
2120.83
2121.2
2124.43
2132.37
2147.68
2173.9
2215.27
2276.63
2360.91
2467.86
2588.64
2707.46
2779.57
2874.72
2124.13
2131.86
2134.12
2132.68
2129.46
2125.83
2122.33
2119.12
2116.38
2114.47
2114.08
2116.35
2123.06
2136.75
2160.83
2199.43
2256.91
2335.76
2435.29
2546.91
2666.48
2776.65
2889.88
2118.84
2126.26
2128.21
2126.54
2123.21
2119.45
2115.7
2112.06
2108.7
2105.98
2104.55
2105.51
2110.56
2122.09
2143.36
2178.35
2231.16
2304.21
2397.42
2503.8
2620.29
2740.24
2859.41
2112.31
2119.39
2120.94
2118.96
2115.48
2111.55
2107.44
2103.24
2099.09
2095.33
2092.58
2091.87
2094.77
2103.53
2121.24
2151.74
2199.08
2265.59
2351.73
2452.11
2561.15
2670.35
2781.45
2104.59
2111.29
2112.31
2109.97
2106.32
2102.16
2097.6
2092.7
2087.58
2082.56
2078.21
2075.46
2075.73
2081.09
2094.4
2119.36
2159.96
2218.72
2296.25
2387.44
2482.2
2563.65
2612
2095.77
2101.97
2102.32
2099.57
2095.74
2091.3
2086.21
2080.47
2074.21
2067.72
2061.52
2056.42
2053.66
2055.07
2063.23
2081.58
2114.03
2163.08
2229.79
2307.67
2379.75
2423.4
2290.49
5.13311
5.11682
5.107
5.09715
5.08281
5.06315
5.03686
5.00383
4.96498
4.92205
4.87705
4.83209
4.7891
4.74964
4.71508
4.68637
4.66426
4.64928
4.64172
5.13564
5.11619
5.10695
5.09787
5.08373
5.06428
5.03802
5.00484
4.96569
4.9224
4.87703
4.83172
4.78845
4.74876
4.714
4.68517
4.66297
4.64792
4.64034
5.13823
5.11524
5.1071
5.09945
5.08563
5.06658
5.04039
5.00689
4.96716
4.92312
4.877
4.831
4.78713
4.74696
4.71183
4.68272
4.66034
4.64517
4.63754
5.1448
5.11389
5.10715
5.10194
5.08848
5.07011
5.04402
5.01004
4.96939
4.92422
4.87696
4.8299
4.78512
4.74423
4.70854
4.67903
4.65636
4.64102
4.6333
5.15322
5.11136
5.10815
5.10449
5.09225
5.07494
5.04903
5.01436
4.97243
4.9257
4.87687
4.82838
4.78239
4.74054
4.70411
4.67406
4.65101
4.63544
4.62761
5.16492
5.10728
5.10993
5.10748
5.09694
5.08121
5.05555
5.01995
4.97632
4.92756
4.87671
4.82641
4.77889
4.73584
4.6985
4.66777
4.64428
4.62842
4.62046
5.17879
5.09943
5.11269
5.11092
5.10251
5.08913
5.0638
5.02696
4.98112
4.9298
4.87644
4.82392
4.77457
4.73008
4.69165
4.66014
4.63612
4.61993
4.61181
5.19483
5.09178
5.11597
5.11431
5.10976
5.09899
5.07403
5.03553
4.98688
4.93238
4.876
4.82085
4.76936
4.7232
4.68353
4.65113
4.62649
4.60993
4.60163
2080.24
2085.5
2084.84
2081.39
2077.11
2072.07
2065.93
2058.61
2050.24
2041.04
2031.41
2021.92
2013.54
2007.61
2006.18
2012.35
2030.01
2060.28
2106.08
2155.15
2173.04
2103.77
1523.67
2054.67
2058.55
2056.41
2051.85
2046.54
2040.03
2031.71
2021.39
2009.09
1994.83
1978.68
1960.78
1941.32
1920.46
1899.09
1880.52
1871.37
1873.13
1876.17
1878.01
1848.97
1742.45
1437.57
2025.48
2027.75
2023.91
2018.07
2011.39
2002.87
1991.68
1977.55
1960.3
1939.63
1915.21
1886.34
1852.05
1810.53
1760.04
1701.87
1646.57
1594.48
1558.97
1507.96
1452.29
1423.81
1370.04
1993.42
1993.92
1988.32
1981.09
1972.67
1961.58
1946.88
1928.16
1904.94
1876.5
1842.01
1799.58
1747.76
1680.88
1588.69
1466.01
1322.78
1075.61
814.998
596.419
499.78
628.338
938.602
1959.28
1957.96
1950.68
1941.96
1931.45
1917.32
1898.6
1874.67
1844.63
1807.49
1761.79
1705.27
1636.18
1536.43
1384.36
1076.94
656.291
157.831
-1.69031
-0.230664
0.876445
15.4732
111.541
1923.76
1920.55
1911.79
1901.53
1888.71
1871.3
1848.33
1818.96
1782.07
1736.26
1679.8
1608.77
1514.82
1353.73
820.374
122.167
-1.58794
-3.86738
-4.35871
-4.74229
-4.84285
-4.93793
-4.64621
1887.93
1882.67
1872.74
1861.1
1846.05
1825.56
1798.61
1764.34
1721.52
1666.43
1596.99
1501.93
1231.03
498.928
1.9221
-2.64974
-3.95061
-4.50588
-4.76442
-5.0839
-5.51953
-6.06744
-6.59725
1853.68
1846.58
1836.02
1823.08
1806.1
1782.97
1752
1712.56
1662.88
1591.01
1386.86
862.397
186.662
-2.86025
-2.52932
-3.60034
-4.35051
-4.75713
-5.0312
-5.38476
-5.87857
-6.44841
-6.96042
1820.99
1812.09
1800.99
1785.91
1766.57
1740.86
1700.97
1592.65
1347.41
865.069
320.293
-3.18236
-3.71312
-3.2142
-2.78222
-1.64259
-3.89614
-5.02937
-5.21556
-5.4869
-5.93223
-6.45036
-6.86315
1771.4
1662.3
1648.47
1578.76
1450.77
1251.08
934.488
536.993
184.676
-2.34088
-3.04563
-3.05535
-3.29415
-3.27964
-0.845614
2.73876
-1.37787
-5.16899
-5.28773
-5.50891
-5.87517
-6.27384
-6.59462
804.732
473.655
455.197
352.591
218.198
85.154
-1.38632
-1.71125
-2.02137
-2.34614
-2.85696
-3.23361
-3.48156
-3.4856
1.24799
3.04176
0.179154
-5.14171
-5.28624
-5.46408
-5.76001
-6.08557
-6.38219
-1.43401
-1.43308
-1.47278
-1.53874
-1.62905
-1.73221
-1.72593
-1.84312
-2.10357
-2.49386
-2.99143
-3.49413
-3.87197
-3.92553
-0.960526
3.49169
0.539388
-5.12853
-5.21652
-5.36241
-5.61703
-5.9238
-6.25592
-1.44079
-1.44175
-1.47669
-1.52869
-1.59551
-1.6763
-1.75581
-1.89961
-2.17032
-2.60597
-3.19388
-3.09854
-3.9838
-4.50114
-1.79914
3.75903
-0.254284
-5.1011
-5.08371
-5.21106
-5.44126
-5.75597
-6.15725
-1.4555
-1.46136
-1.48847
-1.53223
-1.58966
-1.66397
-1.76599
-1.93048
-2.2226
-2.69141
-2.99961
-2.62113
-3.3539
-4.95467
-1.7165
3.85539
-2.20439
-4.92754
-4.90469
-5.01499
-5.23049
-5.55244
-6.01191
-1.46355
-1.47968
-1.50017
-1.5365
-1.58808
-1.65954
-1.76439
-1.93093
-2.22643
-2.70261
-2.21125
-2.6105
-3.53808
-4.98465
-2.04011
1.3258
-4.86795
-4.69856
-4.68268
-4.78113
-4.9818
-5.29735
-5.78327
-1.46352
-1.48193
-1.50049
-1.53373
-1.58166
-1.6498
-1.74851
-1.90253
-2.17496
-2.61863
-2.58606
-2.31165
-3.06588
-3.99063
-1.82253
-1.80976
-4.53365
-4.40938
-4.4163
-4.51009
-4.68968
-4.97356
-5.41288
-1.4566
-1.47295
-1.49091
-1.5221
-1.56714
-1.63095
-1.72074
-1.8552
-2.08386
-2.45251
-2.97113
-3.12019
-3.22418
-3.80911
-4.42507
-4.30177
-4.14268
-4.0812
-4.11122
-4.19829
-4.34692
-4.57217
-4.90723
-1.44151
-1.4535
-1.47189
-1.50127
-1.54361
-1.6025
-1.68277
-1.79658
-1.97424
-2.24996
-2.62943
-3.05801
-3.42807
-3.66907
-3.7622
-3.74778
-3.71035
-3.72556
-3.77184
-3.84974
-3.95955
-4.11152
-4.31851
-1.41669
-1.42624
-1.4441
-1.47182
-1.51138
-1.5655
-1.63737
-1.73371
-1.8703
-2.06712
-2.32859
-2.62036
-2.88235
-3.0737
-3.18439
-3.23103
-3.29737
-3.35774
-3.41562
-3.47847
-3.54799
-3.62781
-3.7156
-1.3835
-1.39187
-1.40865
-1.4346
-1.47128
-1.52078
-1.58542
-1.66899
-1.77895
-1.92408
-2.10483
-2.30512
-2.49947
-2.66426
-2.78741
-2.87636
-2.95277
-3.01376
-3.06343
-3.1038
-3.13433
-3.15212
-3.14602
-1.34352
-1.35112
-1.36666
-1.39067
-1.42425
-1.469
-1.52672
-1.59978
-1.6918
-1.8063
-1.94238
-2.09135
-2.23899
-2.37149
-2.48174
-2.56992
-2.63924
-2.69027
-2.725
-2.74188
-2.73837
-2.70802
-2.63801
-1.29809
-1.30503
-1.31925
-1.34114
-1.37145
-1.41127
-1.46191
-1.52488
-1.60192
-1.69416
-1.79999
-1.91385
-2.02734
-2.13213
-2.2228
-2.29691
-2.35303
-2.39039
-2.40834
-2.40402
-2.37347
-2.30913
-2.20046
-1.24833
-1.25462
-1.26745
-1.28709
-1.31402
-1.34892
-1.39262
-1.44597
-1.50973
-1.58399
-1.66715
-1.7553
-1.84289
-1.92439
-1.99542
-2.05267
-2.09354
-2.11614
-2.11824
-2.09644
-2.04648
-1.96191
-1.83247
-1.19509
-1.2007
-1.2121
-1.22945
-1.25302
-1.28317
-1.32035
-1.36494
-1.41717
-1.47671
-1.54203
-1.61015
-1.67715
-1.73905
-1.79221
-1.83328
-1.8594
-1.86816
-1.85673
-1.82153
-1.7586
-1.66264
-1.5264
-1.13909
-1.14399
-1.15395
-1.16903
-1.18933
-1.215
-1.24619
-1.28296
-1.32521
-1.37239
-1.42316
-1.47524
-1.52565
-1.57124
-1.60895
-1.63577
-1.64891
-1.64579
-1.62357
-1.57899
-1.50859
-1.40833
-1.27341
-1.08088
-1.08509
-1.09363
-1.10651
-1.12371
-1.14522
-1.17099
-1.20088
-1.23456
-1.27141
-1.31025
-1.34927
-1.38613
-1.41827
-1.44306
-1.45787
-1.4602
-1.44753
-1.41727
-1.36672
-1.29311
-1.19345
-1.06459
-1.02096
-1.0245
-1.03169
-1.04248
-1.0568
-1.07451
-1.09545
-1.11933
-1.14573
-1.17397
-1.20301
-1.23136
-1.25716
-1.27831
-1.29257
-1.29765
-1.29135
-1.27148
-1.23578
-1.18204
-1.10818
-1.01218
-0.891968
-0.959766
-0.962681
-0.968608
-0.977458
-0.989113
-1.0034
-1.02007
-1.03876
-1.05899
-1.08007
-1.10107
-1.12076
-1.13762
-1.1499
-1.15574
-1.15321
-1.14041
-1.11547
-1.07652
-1.02184
-0.94989
-0.859265
-0.748841
-0.89769
-0.900037
-0.904788
-0.911857
-0.921103
-0.932332
-0.945255
-0.959487
-0.974519
-0.98969
-1.00416
-1.01688
-1.02659
-1.03187
-1.03116
-1.02287
-1.00541
-0.977225
-0.936814
-0.882849
-0.814215
-0.729991
-0.629675
-0.835059
-0.836893
-0.840577
-0.846037
-0.853129
-0.861653
-0.871318
-0.881742
-0.892426
-0.902747
-0.911951
-0.919138
-0.923263
-0.923147
-0.91752
-0.905071
-0.884493
-0.854525
-0.814014
-0.761962
-0.697576
-0.620272
-0.529906
-0.77214
-0.773515
-0.77625
-0.780283
-0.785478
-0.791641
-0.798499
-0.805693
-0.812758
-0.819128
-0.824135
-0.827001
-0.826845
-0.822701
-0.813536
-0.798283
-0.775884
-0.745351
-0.705803
-0.656491
-0.596865
-0.526637
-0.445819
-0.709138
-0.71011
-0.712017
-0.714811
-0.718367
-0.722502
-0.726974
-0.731457
-0.735538
-0.738718
-0.740416
-0.739963
-0.736621
-0.729592
-0.71804
-0.701105
-0.677955
-0.647824
-0.610033
-0.56403
-0.509469
-0.446226
-0.374433
-0.646213
-0.646837
-0.64804
-0.649782
-0.65195
-0.654378
-0.656857
-0.659101
-0.660755
-0.661395
-0.660525
-0.657581
-0.651947
-0.642971
-0.629977
-0.612281
-0.589229
-0.560228
-0.524771
-0.482475
-0.43313
-0.3767
-0.313379
-0.583508
-0.583838
-0.584453
-0.585318
-0.586335
-0.587358
-0.588206
-0.588639
-0.588362
-0.587021
-0.584207
-0.579453
-0.572257
-0.56209
-0.548411
-0.530682
-0.508392
-0.481092
-0.448409
-0.410079
-0.365978
-0.31613
-0.260767
-0.521144
-0.52123
-0.521364
-0.521513
-0.521595
-0.521487
-0.521034
-0.520041
-0.518269
-0.515433
-0.511203
-0.505206
-0.497043
-0.486294
-0.472533
-0.455342
-0.434331
-0.409159
-0.379563
-0.345364
-0.306487
-0.26296
-0.215102
-0.459185
-0.459074
-0.458824
-0.458405
-0.457747
-0.456751
-0.455292
-0.453214
-0.450333
-0.446425
-0.441232
-0.43447
-0.425829
-0.414988
-0.401623
-0.385415
-0.366074
-0.343352
-0.317061
-0.287086
-0.253391
-0.216004
-0.175211
-0.397663
-0.397401
-0.396846
-0.395988
-0.394759
-0.393088
-0.390877
-0.388012
-0.384355
-0.379738
-0.373972
-0.366845
-0.358134
-0.347603
-0.335012
-0.320133
-0.302759
-0.282716
-0.259878
-0.234181
-0.205629
-0.174331
-0.140118
-0.336636
-0.336268
-0.335475
-0.33428
-0.332617
-0.330442
-0.327687
-0.324277
-0.320116
-0.31509
-0.309069
-0.301912
-0.293465
-0.283567
-0.272056
-0.258778
-0.243597
-0.2264
-0.207111
-0.185698
-0.162168
-0.136567
-0.108885
-0.276228
-0.275799
-0.274822
-0.273371
-0.271382
-0.268838
-0.265701
-0.261931
-0.257474
-0.252266
-0.246234
-0.239298
-0.231368
-0.222351
-0.212151
-0.20068
-0.187859
-0.17363
-0.157954
-0.140824
-0.122251
-0.102255
-0.0808516
-0.21676
-0.216305
-0.215197
-0.213552
-0.211319
-0.208503
-0.205097
-0.201095
-0.196484
-0.191247
-0.185365
-0.178812
-0.171561
-0.163576
-0.154827
-0.145282
-0.134917
-0.123717
-0.111681
-0.0988228
-0.0851603
-0.0706937
-0.0554055
-0.157838
-0.157404
-0.156226
-0.154446
-0.152037
-0.149031
-0.145452
-0.141328
-0.136685
-0.131552
-0.125956
-0.119925
-0.113483
-0.106657
-0.0994687
-0.0919424
-0.0841027
-0.0759759
-0.067592
-0.0589912
-0.0502077
-0.0412316
-0.0319881
-0.096644
-0.0964516
-0.0952567
-0.0933918
-0.090883
-0.0877911
-0.0841717
-0.0800852
-0.0755969
-0.070777
-0.0656987
-0.0604376
-0.0550697
-0.0496707
-0.0443143
-0.0390709
-0.0340064
-0.0291805
-0.0246472
-0.0204647
-0.0166869
-0.0133113
-0.0101727
455.399
475.541
6.45081
6.62758
966.582
723.828
594.946
403.916
1197.35
1032.95
940.851
870.617
1073.36
1040.99
1013.08
1006.67
240.083
383.067
844.756
1041.78
-3.80602
-2.17132
41.4551
595.026
-6.68859
-6.47333
-5.81846
47.2322
-7.15923
-7.19223
-7.35761
-5.90875
-7.04016
-7.12491
-7.34935
-7.34754
-6.78153
-6.89876
-7.10114
-7.33472
-6.6224
-6.78391
-6.97337
-7.20474
-6.54792
-6.72858
-6.88046
-7.02195
-6.5375
-6.76048
-6.86172
-6.94849
-6.52167
-6.8123
-6.40252
-7.23361
-6.29833
-6.62595
-5.91175
-4.83264
-5.88849
-6.20854
-6.40247
-5.82634
-5.25835
-5.5095
-5.77335
-5.74428
-4.50684
-4.63577
-4.79097
-5.01169
-3.76804
-3.78994
-3.81456
-3.86289
-3.10585
-3.06174
-3.00493
-2.94035
-2.54223
-2.4614
-2.36298
-2.24781
-2.07641
-1.97937
-1.86548
-1.73508
-1.69819
-1.59751
-1.48256
-1.35389
-1.39294
-1.29571
-1.1871
-1.06776
-1.14675
-1.0564
-0.95725
-0.849952
-0.947589
-0.86548
-0.776644
-0.681677
-0.785694
-0.712061
-0.633288
-0.549885
-0.65335
-0.587854
-0.518399
-0.445416
-0.544494
-0.486529
-0.425485
-0.361713
-0.454326
-0.403212
-0.349671
-0.293995
-0.37906
-0.334134
-0.287275
-0.238728
-0.31574
-0.2764
-0.235514
-0.193289
-0.262065
-0.227789
-0.19228
-0.155708
-0.216237
-0.186587
-0.155958
-0.124489
-0.176852
-0.15146
-0.1253
-0.0984796
-0.142806
-0.121359
-0.0993198
-0.0767706
-0.113187
-0.0954225
-0.0772164
-0.0586252
-0.0871895
-0.0729134
-0.0583143
-0.0434313
-0.0641745
-0.0532269
-0.042054
-0.0306817
-0.0435852
-0.0358458
-0.0279626
-0.0199515
-0.0249224
-0.0203106
-0.0156227
-0.0108669
-0.0078188
-0.00628854
-0.00473792
-0.00316893
5.20504
5.01908
5.12169
5.11903
5.12289
5.11785
5.09364
5.05165
4.99745
4.93689
4.8749
4.81498
4.75965
4.71056
4.66871
4.63476
4.60909
4.59188
4.58327
10.5748
5.29298
5.11567
5.10653
5.14386
5.15699
5.13366
5.083
5.01672
4.94401
4.87152
4.80306
4.74117
4.68723
4.64191
4.60554
4.57825
4.56007
4.551
329.518
5.66454
4.90138
5.01849
5.17285
5.22288
5.19447
5.12631
5.04074
4.95107
4.86452
4.78552
4.71595
4.65657
4.6075
4.5686
4.53967
4.52052
4.51099
851.212
122.727
4.42128
4.94066
5.27411
5.34307
5.28552
5.18278
5.0674
4.95444
4.8509
4.75987
4.68205
4.61712
4.56441
4.52316
4.49276
4.47275
4.46283
977.242
404.899
10.4111
5.24518
5.56192
5.54042
5.40851
5.24803
5.09112
4.94918
4.82634
4.72283
4.63709
4.56723
4.51149
4.46842
4.43694
4.41633
4.40615
1014.64
684.52
49.2
6.28815
5.94189
5.78974
5.54842
5.30789
5.10071
4.92679
4.7849
4.67038
4.57848
4.50524
4.44769
4.40368
4.37176
4.35095
4.34069
908.806
866.434
137.507
7.95988
6.51832
6.06358
5.67107
5.34214
5.07895
4.87596
4.71956
4.59839
4.5038
4.42977
4.37223
4.32854
4.29696
4.27643
4.26632
799.338
870.832
252.755
9.65998
7.18787
6.32559
5.75501
5.31113
5.00355
4.78408
4.62364
4.50346
4.41144
4.34008
4.28482
4.24288
4.21255
4.19282
4.1831
636.899
891.889
283.015
10.6467
7.41655
6.37859
5.6555
5.16214
4.84978
4.64046
4.49298
4.38432
4.30126
4.23646
4.18582
4.14705
4.11883
4.10039
4.09127
508.84
934.652
235.318
9.92672
6.8392
5.98747
5.29758
4.86345
4.60658
4.44315
4.3291
4.24325
4.17533
4.12047
4.07636
4.04189
4.01643
3.99963
3.99129
467.7
914.719
217.242
7.44838
5.44376
4.97748
4.64415
4.40952
4.28255
4.2038
4.14154
4.08688
4.03795
3.99488
3.95827
3.92863
3.90624
3.89126
3.88378
420.136
912.802
229.973
3.32311
3.43437
3.38324
3.64804
3.81014
3.91573
3.95102
3.94794
3.92558
3.89517
3.86328
3.83373
3.80865
3.7892
3.776
3.76935
109.215
829.495
500.291
4.14873
1.24845
1.67181
2.65691
3.32836
3.61289
3.73036
3.77075
3.77087
3.75299
3.72896
3.70466
3.6832
3.66622
3.65456
3.64867
-7.14537
747.64
731.196
113.511
1.11939
0.729695
2.0814
3.06715
3.45208
3.58062
3.62611
3.62966
3.61476
3.59373
3.57221
3.55311
3.53797
3.52757
3.52231
-7.03772
267.379
738.341
528.683
32.3514
2.37183
2.70704
3.29233
3.4665
3.5065
3.51299
3.50047
3.47974
3.45741
3.43653
3.41874
3.40491
3.39552
3.3908
-3.92962
-5.88666
286.434
389.431
99.2551
4.43332
3.57769
3.55436
3.50624
3.44971
3.40774
3.37313
3.34335
3.31801
3.29691
3.27999
3.26728
3.25882
3.25462
-5.29828
-6.20193
-0.397663
22.2618
60.5067
11.4921
3.98341
3.65693
3.47493
3.35906
3.28549
3.23581
3.19996
3.17301
3.15235
3.13667
3.1253
3.11788
3.11424
-5.26146
-4.26124
-3.01372
2.01825
4.96518
5.93806
3.94603
3.53412
3.33378
3.21045
3.13229
3.08104
3.04582
3.02066
3.00225
2.98878
2.97927
2.97319
2.97023
-3.86369
-3.18977
-1.93155
0.802351
2.82334
3.41635
3.35371
3.20692
3.09032
3.00574
2.94755
2.90784
2.88031
2.86082
2.8468
2.83675
2.82978
2.82538
2.82327
-2.76439
-2.1106
-0.926823
0.684918
1.97277
2.58928
2.78221
2.81552
2.79627
2.7669
2.74077
2.72057
2.70568
2.69487
2.68706
2.6815
2.67768
2.67531
2.67418
-1.99409
-1.36936
-0.451656
0.622359
1.51001
2.04817
2.32084
2.44613
2.49746
2.51779
2.52448
2.526
2.52582
2.52525
2.52471
2.52431
2.52406
2.52393
2.5239
-1.46976
-0.921929
-0.218379
0.54688
1.20464
1.66419
1.95059
2.12007
2.21789
2.27506
2.30921
2.33073
2.34494
2.35476
2.36172
2.36667
2.37012
2.37232
2.37343
-1.10492
-0.641123
-0.0916806
0.480904
0.988631
1.37936
1.65515
1.84146
1.96496
2.04696
2.10211
2.14009
2.16671
2.18603
2.20006
2.21006
2.21708
2.22154
2.22377
-0.844397
-0.45609
-0.018363
0.427879
0.832895
1.1651
1.41945
1.60648
1.74123
1.83768
1.90699
1.95726
1.99406
2.02133
2.04148
2.05581
2.06609
2.07258
2.07592
-0.653694
-0.328385
0.0267868
0.384932
0.716036
0.999617
1.22924
1.4084
1.54513
1.64831
1.72599
1.78451
1.82868
1.86204
1.88703
1.9053
1.9182
1.92638
1.93068
-0.510836
-0.236965
0.0558836
0.349606
0.625074
0.868363
1.07338
1.24043
1.37349
1.47801
1.55951
1.62277
1.6717
1.70934
1.73794
1.75912
1.77412
1.78367
1.78868
-0.401667
-0.169687
0.0749659
0.319768
0.551919
0.761605
0.943587
1.09676
1.22285
1.32504
1.40698
1.47216
1.52361
1.56383
1.59478
1.61794
1.63445
1.64501
1.65048
-0.316881
-0.119218
0.0872932
0.293758
0.491259
0.672668
0.833648
0.972573
1.0899
1.18738
1.26734
1.33223
1.38435
1.42568
1.45785
1.48214
1.49957
1.51078
1.5165
-0.250171
-0.0809059
0.0947721
0.270393
0.43954
0.59691
0.738958
0.863957
0.97169
1.06299
1.1393
1.20227
1.2536
1.29481
1.32721
1.35189
1.36969
1.38119
1.387
-0.197136
-0.0516635
0.0985942
0.248835
0.394321
0.531025
0.656065
0.767797
0.86567
0.949969
1.02151
1.08139
1.13081
1.17092
1.20274
1.22715
1.24486
1.25635
1.26209
-0.154638
-0.029375
0.0995395
0.228478
0.353869
0.472606
0.58235
0.681612
0.769707
0.846591
0.912677
0.968655
1.01535
1.05359
1.08418
1.10779
1.125
1.13621
1.14177
-0.120408
-0.0125499
0.0981375
0.208876
0.316929
0.419874
0.51581
0.603433
0.682026
0.751363
0.811597
0.86313
0.906506
0.942322
0.971162
0.993553
1.00994
1.02065
1.02593
-0.0927693
-0.00011055
0.0947622
0.189698
0.282577
0.371495
0.454906
0.531691
0.601157
0.662991
0.717181
0.763934
0.803592
0.836564
0.863271
0.884107
0.899414
0.909449
0.914347
-0.0704641
0.0087439
0.089692
0.170705
0.250129
0.326458
0.398441
0.465128
0.525882
0.58036
0.628453
0.670239
0.705915
0.73575
0.760038
0.779066
0.793089
0.802307
0.806768
-0.052527
0.0146257
0.0831448
0.151723
0.219068
0.283989
0.345473
0.402726
0.455185
0.502508
0.544539
0.581271
0.612805
0.639306
0.660971
0.678004
0.690592
0.698885
0.702864
-0.0381995
0.0180165
0.0752975
0.132628
0.189
0.243475
0.295243
0.343648
0.388206
0.4286
0.464655
0.496318
0.523622
0.546663
0.565568
0.580474
0.591515
0.598805
0.602268
-0.026872
0.0193025
0.066294
0.113322
0.15961
0.204426
0.247129
0.287192
0.324209
0.3579
0.388094
0.414714
0.437756
0.457265
0.473319
0.486009
0.495426
0.501657
0.50458
-0.0180455
0.018797
0.0562498
0.0937265
0.130639
0.166432
0.200611
0.23276
0.262553
0.289755
0.314212
0.335843
0.354623
0.370566
0.383718
0.394135
0.401878
0.407012
0.409381
-0.0113092
0.0167562
0.0452577
0.0737719
0.101872
0.12915
0.15524
0.179831
0.202672
0.223578
0.242422
0.25913
0.273669
0.28604
0.296265
0.304377
0.310413
0.314428
0.316235
-0.00632291
0.0133886
0.0333881
0.0533923
0.073113
0.0922728
0.11062
0.127939
0.144054
0.15883
0.172174
0.184028
0.194362
0.20317
0.21046
0.216252
0.220566
0.223448
0.224693
-0.0027895
0.00887872
0.0207079
0.0325375
0.0442019
0.0555409
0.0664081
0.0766768
0.0862428
0.0950259
0.102969
0.110034
0.116201
0.121464
0.125825
0.129294
0.131877
0.133623
0.134316
-0.000510913
0.00332197
0.00720253
0.0110812
0.0149058
0.0186254
0.0221931
0.0255678
0.0287156
0.03161
0.0342313
0.0365665
0.0386078
0.040352
0.041799
0.0429516
0.0438081
0.0443969
0.0446075
)
;

boundaryField
{
    leftWall
    {
        type            fixedFluxPressure;
        gradient        uniform 0;
        value           nonuniform List<scalar> 
50
(
2132.14
2130.8
2128.12
2124.13
2118.84
2112.31
2104.59
2095.77
2080.24
2054.67
2025.48
1993.42
1959.28
1923.76
1887.93
1853.68
1820.99
1771.4
804.732
-1.43401
-1.44079
-1.4555
-1.46355
-1.46352
-1.4566
-1.44151
-1.41669
-1.3835
-1.34352
-1.29809
-1.24833
-1.19509
-1.13909
-1.08088
-1.02096
-0.959766
-0.89769
-0.835059
-0.77214
-0.709138
-0.646213
-0.583508
-0.521144
-0.459185
-0.397663
-0.336636
-0.276228
-0.21676
-0.157838
-0.096644
)
;
    }
    rightWall
    {
        type            fixedFluxPressure;
        gradient        uniform 0;
        value           nonuniform List<scalar> 
50
(
4.64172
4.64034
4.63754
4.6333
4.62761
4.62046
4.61181
4.60163
4.58327
4.551
4.51099
4.46283
4.40615
4.34069
4.26632
4.1831
4.09127
3.99129
3.88378
3.76935
3.64867
3.52231
3.3908
3.25462
3.11424
2.97023
2.82327
2.67418
2.5239
2.37343
2.22377
2.07592
1.93068
1.78868
1.65048
1.5165
1.387
1.26209
1.14177
1.02593
0.914347
0.806768
0.702864
0.602268
0.50458
0.409381
0.316235
0.224693
0.134316
0.0446075
)
;
    }
    lowerWall
    {
        type            fixedFluxPressure;
        gradient        uniform 0;
        value           nonuniform List<scalar> 
62
(
2132.14
2140.41
2143.14
2142.03
2138.93
2135.47
2132.34
2129.74
2127.89
2127.17
2128.29
2132.48
2141.65
2158.62
2187.33
2233.71
2303.84
2401.34
2523.96
2653.68
2753.36
2771.81
2810.23
2810.23
2824.67
2874.72
2889.88
2859.41
2781.45
2612
2290.49
455.399
475.541
6.45081
6.62758
5.13311
5.13564
5.13823
5.1448
5.15322
5.16492
5.17879
5.19483
5.13311
5.11682
5.107
5.09715
5.08281
5.06315
5.03686
5.00383
4.96498
4.92205
4.87705
4.83209
4.7891
4.74964
4.71508
4.68637
4.66426
4.64928
4.64172
)
;
    }
    atmosphere
    {
        type            totalPressure;
        rho             rho;
        psi             none;
        gamma           1;
        p0              uniform 0;
        value           nonuniform List<scalar> 
46
(
-0.0634433
-0.0637203
-0.0624812
-0.0605929
-0.0580862
-0.0550275
-0.0514854
-0.0475363
-0.0432639
-0.0387584
-0.034115
-0.029432
-0.0248086
-0.0203425
-0.0161278
-0.0122523
-0.00879611
-0.00582929
-0.00341178
-0.0015998
-0.000453227
-9.27124e-06
0
0
0
0
0
0
0
0
0
0
0
0
0
0
0
0
0
0
0
0
0
0
0
0
)
;
    }
    defaultFaces
    {
        type            empty;
    }
}


// ************************************************************************* //
