/*--------------------------------*- C++ -*----------------------------------*\
| =========                 |                                                 |
| \\      /  F ield         | OpenFOAM: The Open Source CFD Toolbox           |
|  \\    /   O peration     | Version:  5.x                                   |
|   \\  /    A nd           | Web:      www.OpenFOAM.org                      |
|    \\/     M anipulation  |                                                 |
\*---------------------------------------------------------------------------*/
FoamFile
{
    version     2.0;
    format      ascii;
    class       surfaceScalarField;
    location    "0.2";
    object      phi;
}
// * * * * * * * * * * * * * * * * * * * * * * * * * * * * * * * * * * * * * //

dimensions      [0 3 -1 0 0 0 0];

internalField   nonuniform List<scalar> 
4432
(
2.03321e-06
-2.03321e-06
7.66979e-06
-5.63658e-06
1.40051e-05
-6.33535e-06
1.98926e-05
-5.88745e-06
2.52793e-05
-5.38675e-06
3.04175e-05
-5.13816e-06
3.55276e-05
-5.11011e-06
4.07217e-05
-5.19409e-06
4.60138e-05
-5.29207e-06
5.13499e-05
-5.33619e-06
5.66287e-05
-5.27873e-06
6.17028e-05
-5.07414e-06
6.63687e-05
-4.66588e-06
7.03452e-05
-3.9765e-06
7.32111e-05
-2.86591e-06
7.41295e-05
-9.18395e-07
7.15373e-05
2.59223e-06
6.31915e-05
8.3458e-06
4.71774e-05
1.60141e-05
2.32639e-05
2.39135e-05
-3.71011e-06
2.6974e-05
-1.90567e-05
1.53466e-05
-1.90567e-05
2.08192e-06
-4.11513e-06
7.72231e-06
-1.1277e-05
1.40573e-05
-1.26704e-05
1.99507e-05
-1.17808e-05
2.53432e-05
-1.07793e-05
3.04944e-05
-1.02893e-05
3.56279e-05
-1.02436e-05
4.08522e-05
-1.04184e-05
4.61788e-05
-1.06187e-05
5.15554e-05
-1.07128e-05
5.68847e-05
-1.0608e-05
6.20237e-05
-1.02132e-05
6.67737e-05
-9.41588e-06
7.08595e-05
-8.0623e-06
7.39285e-05
-5.93497e-06
7.58021e-05
-2.79199e-06
7.65261e-05
1.86827e-06
7.5858e-05
9.01394e-06
7.14888e-05
2.03833e-05
5.90581e-05
3.63442e-05
3.66022e-05
4.94298e-05
1.27466e-05
3.92022e-05
-6.31005e-06
2.14604e-06
-6.26117e-06
7.77882e-06
-1.69098e-05
1.40646e-05
-1.89562e-05
1.99052e-05
-1.76213e-05
2.52615e-05
-1.61357e-05
3.04006e-05
-1.54284e-05
3.55439e-05
-1.53869e-05
4.07921e-05
-1.56667e-05
4.61528e-05
-1.59793e-05
5.15757e-05
-1.61358e-05
5.69693e-05
-1.60016e-05
6.21992e-05
-1.5443e-05
6.70771e-05
-1.42939e-05
7.13475e-05
-1.23327e-05
7.468e-05
-9.26751e-06
7.66204e-05
-4.73239e-06
7.67534e-05
1.73531e-06
7.50762e-05
1.06912e-05
7.23321e-05
2.31273e-05
6.81672e-05
4.05092e-05
5.69215e-05
6.06755e-05
3.22525e-05
6.38712e-05
2.59424e-05
2.24077e-06
-8.50194e-06
7.87464e-06
-2.25436e-05
1.40892e-05
-2.51707e-05
1.98482e-05
-2.33803e-05
2.51538e-05
-2.14413e-05
3.02821e-05
-2.05567e-05
3.54458e-05
-2.05506e-05
4.07342e-05
-2.09551e-05
4.615e-05
-2.13951e-05
5.16462e-05
-2.1632e-05
5.714e-05
-2.14953e-05
6.2509e-05
-2.0812e-05
6.75815e-05
-1.93664e-05
7.21181e-05
-1.68693e-05
7.57933e-05
-1.29427e-05
7.81927e-05
-7.13177e-06
7.88313e-05
1.09669e-06
7.72592e-05
1.22633e-05
7.35327e-05
2.68538e-05
6.9058e-05
4.49839e-05
6.17035e-05
6.803e-05
4.07752e-05
8.47995e-05
6.67176e-05
2.36683e-06
-1.08688e-05
8.00351e-06
-2.81803e-05
1.41213e-05
-3.12885e-05
1.97715e-05
-2.90306e-05
2.50139e-05
-2.66837e-05
3.01328e-05
-2.56757e-05
3.53255e-05
-2.57432e-05
4.06657e-05
-2.62952e-05
4.61512e-05
-2.68806e-05
5.17406e-05
-2.72214e-05
5.73622e-05
-2.71169e-05
6.29108e-05
-2.63607e-05
6.82355e-05
-2.4691e-05
7.3115e-05
-2.17488e-05
7.72357e-05
-1.70634e-05
8.01933e-05
-1.00893e-05
8.15375e-05
-2.47515e-07
8.07793e-05
1.30215e-05
7.73316e-05
3.03015e-05
7.12101e-05
5.11054e-05
6.27332e-05
7.65069e-05
4.33179e-05
0.000104215
0.000110036
2.52452e-06
-1.33933e-05
8.15659e-06
-3.38124e-05
1.41483e-05
-3.72802e-05
1.96658e-05
-3.45481e-05
2.48356e-05
-3.18535e-05
2.99463e-05
-3.07864e-05
3.51726e-05
-3.09695e-05
4.057e-05
-3.16926e-05
4.61326e-05
-3.24432e-05
5.18265e-05
-3.29153e-05
5.75958e-05
-3.28861e-05
6.33571e-05
-3.21221e-05
6.89831e-05
-3.0317e-05
7.42717e-05
-2.70373e-05
7.89237e-05
-2.17154e-05
8.25458e-05
-1.37115e-05
8.46971e-05
-2.39879e-06
8.48625e-05
1.28561e-05
8.23862e-05
3.27778e-05
7.60518e-05
5.74398e-05
6.55209e-05
8.70377e-05
4.55824e-05
0.000124153
0.000155618
2.70833e-06
-1.61016e-05
8.31986e-06
-3.94239e-05
1.41561e-05
-4.31164e-05
1.95224e-05
-3.99144e-05
2.46142e-05
-3.69454e-05
2.97171e-05
-3.58893e-05
3.49776e-05
-3.623e-05
4.0432e-05
-3.7147e-05
4.60726e-05
-3.80838e-05
5.18762e-05
-3.8719e-05
5.78067e-05
-3.88166e-05
6.38066e-05
-3.81219e-05
6.97724e-05
-3.62828e-05
7.55221e-05
-3.27871e-05
8.07789e-05
-2.69723e-05
8.51789e-05
-1.81115e-05
8.82842e-05
-5.50409e-06
8.95154e-05
1.16249e-05
8.82228e-05
3.40704e-05
8.29405e-05
6.27221e-05
7.16858e-05
9.82924e-05
5.25238e-05
0.000143315
0.000208142
2.90564e-06
-1.90073e-05
8.47208e-06
-4.49903e-05
1.41326e-05
-4.87769e-05
1.93402e-05
-4.5122e-05
2.43525e-05
-4.19576e-05
2.94463e-05
-4.09831e-05
3.47373e-05
-4.1521e-05
4.02438e-05
-4.26534e-05
4.5959e-05
-4.3799e-05
5.18739e-05
-4.46339e-05
5.79761e-05
-4.49189e-05
6.42346e-05
-4.43804e-05
7.05701e-05
-4.26183e-05
7.68274e-05
-3.90444e-05
8.27583e-05
-3.29032e-05
8.80315e-05
-2.33846e-05
9.22394e-05
-9.71198e-06
9.47387e-05
9.1255e-06
9.49175e-05
3.38916e-05
9.14247e-05
6.62149e-05
8.09584e-05
0.000108759
6.02759e-05
0.000163998
0.000268418
8.40273e-07
-8.40273e-07
1.08805e-06
-2.47763e-07
1.12e-06
-3.18792e-08
1.65058e-06
-5.30626e-07
2.46678e-06
-8.16322e-07
3.40909e-06
-9.42327e-07
4.26358e-06
-8.54483e-07
4.91912e-06
-6.55518e-07
5.32903e-06
-4.09929e-07
5.4863e-06
-1.5721e-07
5.40221e-06
8.39043e-08
5.11584e-06
2.86389e-07
4.65486e-06
4.61057e-07
4.07255e-06
5.82263e-07
3.36919e-06
7.0333e-07
2.5925e-06
7.76735e-07
1.75639e-06
8.36246e-07
8.84915e-07
8.71219e-07
8.85335e-07
-8.62958e-07
2.28052e-08
-3.62642e-07
-7.48149e-07
2.50685e-07
-6.45308e-07
1.37499e-06
-1.65498e-06
2.5066e-06
-1.94798e-06
3.67368e-06
-2.10939e-06
4.70647e-06
-1.88732e-06
5.49508e-06
-1.44407e-06
5.98821e-06
-9.03178e-07
6.18184e-06
-3.50722e-07
6.10669e-06
1.58862e-07
5.79046e-06
6.02573e-07
5.28189e-06
9.6978e-07
4.61171e-06
1.2524e-06
3.8222e-06
1.49304e-06
2.93907e-06
1.65964e-06
1.98687e-06
1.78828e-06
9.98496e-07
1.8594e-06
1.88402e-06
-7.49925e-07
7.72805e-07
-1.86086e-07
-1.31205e-06
3.37502e-07
-1.16899e-06
1.38156e-06
-2.699e-06
2.4842e-06
-3.05065e-06
3.66551e-06
-3.29069e-06
4.70743e-06
-2.92927e-06
5.49021e-06
-2.22677e-06
5.9741e-06
-1.38721e-06
6.15825e-06
-5.34764e-07
6.07064e-06
2.46379e-07
5.75624e-06
9.17024e-07
5.24673e-06
1.47955e-06
4.57948e-06
1.9191e-06
3.79458e-06
2.2776e-06
2.91658e-06
2.53753e-06
1.9741e-06
2.73134e-06
9.9114e-07
2.84175e-06
2.87517e-06
-8.27253e-07
1.6001e-06
-4.69771e-07
-1.66955e-06
1.64429e-07
-1.80328e-06
1.24523e-06
-3.77972e-06
2.43055e-06
-4.23598e-06
3.70126e-06
-4.56142e-06
4.79061e-06
-4.01871e-06
5.60682e-06
-3.0429e-06
6.08932e-06
-1.86982e-06
6.25891e-06
-7.04095e-07
6.15148e-06
3.53842e-07
5.82083e-06
1.24726e-06
5.29511e-06
2.00511e-06
4.60628e-06
2.60794e-06
3.8189e-06
3.0655e-06
2.93212e-06
3.4242e-06
1.98188e-06
3.68167e-06
9.96562e-07
3.82637e-06
3.87178e-06
-1.34733e-06
2.94745e-06
-1.20636e-06
-1.8105e-06
-2.71775e-07
-2.73797e-06
1.00199e-06
-5.05343e-06
2.36799e-06
-5.60206e-06
3.76305e-06
-5.95657e-06
4.94236e-06
-5.19805e-06
5.78823e-06
-3.88858e-06
6.26803e-06
-2.34978e-06
6.42833e-06
-8.6447e-07
6.3001e-06
4.81962e-07
5.93521e-06
1.61236e-06
5.39413e-06
2.54672e-06
4.69211e-06
3.30997e-06
3.87728e-06
3.88022e-06
2.96928e-06
4.33173e-06
2.01223e-06
4.63891e-06
1.01e-06
4.82817e-06
4.88199e-06
-1.7317e-06
4.6791e-06
-2.02586e-06
-1.51633e-06
-9.27792e-07
-3.83613e-06
5.87685e-07
-6.5689e-06
2.26437e-06
-7.27879e-06
3.83399e-06
-7.5263e-06
5.13429e-06
-6.4984e-06
6.01717e-06
-4.77139e-06
6.51751e-06
-2.8503e-06
6.65402e-06
-1.00076e-06
6.49554e-06
6.40548e-07
6.10243e-06
2.00553e-06
5.50876e-06
3.14052e-06
4.79154e-06
4.02676e-06
3.94777e-06
4.72379e-06
3.02842e-06
5.25089e-06
2.04715e-06
5.62059e-06
1.02643e-06
5.84857e-06
5.90874e-06
-2.57157e-06
7.25059e-06
-3.52979e-06
-5.58122e-07
-2.079e-06
-5.28699e-06
-1.37432e-07
-8.51054e-06
2.03768e-06
-9.45397e-06
3.91314e-06
-9.40171e-06
5.35383e-06
-7.93904e-06
6.31223e-06
-5.72977e-06
6.80411e-06
-3.34235e-06
6.90776e-06
-1.10431e-06
6.73115e-06
8.17193e-07
6.29097e-06
2.44539e-06
5.6706e-06
3.76075e-06
4.90494e-06
4.79228e-06
4.04268e-06
5.58614e-06
3.09117e-06
6.20239e-06
2.0838e-06
6.62823e-06
1.04523e-06
6.88686e-06
6.95404e-06
-3.15324e-06
1.04037e-05
-6.01715e-06
2.30577e-06
-3.24951e-06
-8.0547e-06
-9.35779e-07
-1.08243e-05
1.80507e-06
-1.21948e-05
4.03762e-06
-1.16342e-05
5.67247e-06
-9.57377e-06
6.67591e-06
-6.73317e-06
7.16288e-06
-3.82935e-06
7.23014e-06
-1.17166e-06
6.98613e-06
1.06118e-06
6.50716e-06
2.92428e-06
5.84262e-06
4.42545e-06
5.04433e-06
5.5908e-06
4.14244e-06
6.48802e-06
3.16531e-06
7.17954e-06
2.13542e-06
7.6582e-06
1.06888e-06
7.95316e-06
8.02278e-06
6.72875e-06
-2.5736e-05
1.85113e-05
-5.67729e-05
2.98889e-05
-6.01545e-05
4.03801e-05
-5.56132e-05
5.07825e-05
-5.236e-05
6.1581e-05
-5.17817e-05
7.29034e-05
-5.28434e-05
8.47506e-05
-5.45007e-05
9.71318e-05
-5.61802e-05
0.000110092
-5.75944e-05
0.000123701
-5.85277e-05
0.000137988
-5.86672e-05
0.000152906
-5.75362e-05
0.000168266
-5.44047e-05
0.000183609
-4.82457e-05
0.000198214
-3.79896e-05
0.000211311
-2.28088e-05
0.000221334
-8.97995e-07
0.000227502
2.77235e-05
0.000227192
6.65251e-05
0.000218626
0.000117324
0.000210576
0.000172048
0.000253183
0.000225811
7.53672e-06
-3.32727e-05
1.89381e-05
-6.81742e-05
2.94292e-05
-7.06456e-05
3.9232e-05
-6.54161e-05
4.93127e-05
-6.24407e-05
6.0032e-05
-6.25009e-05
7.13889e-05
-6.42003e-05
8.33533e-05
-6.64651e-05
9.59894e-05
-6.88163e-05
0.000109457
-7.10621e-05
0.000123964
-7.30347e-05
0.000139704
-7.44073e-05
0.000156914
-7.47457e-05
0.000175668
-7.31588e-05
0.000195527
-6.81052e-05
0.000215648
-5.81104e-05
0.000235234
-4.23943e-05
0.000253119
-1.87837e-05
0.000268272
1.25705e-05
0.000278618
5.6179e-05
0.000287383
0.00010856
0.00029832
0.000161111
0.000226968
0.000324535
8.29125e-06
-4.1564e-05
1.91277e-05
-7.90107e-05
2.86233e-05
-8.01413e-05
3.77554e-05
-7.45481e-05
4.75191e-05
-7.22044e-05
5.80746e-05
-7.30564e-05
6.93142e-05
-7.54399e-05
8.1215e-05
-7.83658e-05
9.39317e-05
-8.15331e-05
0.000107744
-8.48748e-05
0.000122977
-8.82673e-05
0.000139994
-9.14243e-05
0.000159445
-9.41963e-05
0.000181796
-9.55104e-05
0.000206663
-9.29724e-05
0.000232982
-8.44289e-05
0.00026047
-6.98826e-05
0.000286542
-4.48553e-05
0.000313684
-1.45717e-05
0.000331797
3.80661e-05
0.000338594
0.000101762
0.0003421
0.000157605
0.00020872
0.000360348
8.90798e-06
-5.04719e-05
1.89963e-05
-8.9099e-05
2.74806e-05
-8.86256e-05
3.5999e-05
-8.30664e-05
4.54224e-05
-8.16279e-05
5.56871e-05
-8.33211e-05
6.66264e-05
-8.63791e-05
7.82584e-05
-8.99978e-05
9.08253e-05
-9.41e-05
0.000104623
-9.8672e-05
0.000119962
-0.000103606
0.000137263
-0.000108726
0.000157956
-0.000114889
0.000183222
-0.000120777
0.000212313
-0.000122063
0.000243083
-0.0001152
0.000278349
-0.000105149
0.000306158
-7.2664e-05
0.000320491
-2.89045e-05
0.000335952
2.26045e-05
0.000346764
9.09511e-05
0.000348757
0.000155611
0.000199848
0.000357629
9.34624e-06
-5.98182e-05
1.85276e-05
-9.82803e-05
2.60419e-05
-9.61399e-05
3.40042e-05
-9.10287e-05
4.30272e-05
-9.06509e-05
5.28447e-05
-9.31386e-05
6.3267e-05
-9.68014e-05
7.43427e-05
-0.000101073
8.62675e-05
-0.000106025
9.91357e-05
-0.00011154
0.000113093
-0.000117564
0.000128759
-0.000124391
0.000149502
-0.000135633
0.000177115
-0.000148389
0.000208152
-0.0001531
0.000236803
-0.00014385
0.000261481
-0.000129827
0.000287415
-9.85979e-05
0.000296626
-3.81161e-05
0.000311803
7.42793e-06
0.000327807
7.49467e-05
0.000338139
0.00014528
0.000191118
0.000346869
9.61139e-06
-6.94296e-05
1.77513e-05
-0.00010642
2.43656e-05
-0.000102754
3.18014e-05
-9.84645e-05
4.0302e-05
-9.91515e-05
4.94292e-05
-0.000102266
5.89607e-05
-0.000106333
6.88902e-05
-0.000111003
7.9185e-05
-0.00011632
8.97722e-05
-0.000122127
0.000100902
-0.000128693
0.000114756
-0.000138245
0.000137513
-0.000158391
0.000168433
-0.000179309
0.000197275
-0.000181942
0.000223388
-0.000169963
0.000240612
-0.000147051
0.000260108
-0.000118094
0.000286664
-6.46717e-05
0.000301404
-7.31276e-06
0.000320921
5.54299e-05
0.000332359
0.000133842
0.000184464
0.000339012
9.73517e-06
-7.91647e-05
1.66552e-05
-0.00011334
2.23863e-05
-0.000108485
2.92159e-05
-0.000105294
3.69033e-05
-0.000106839
4.48712e-05
-0.000110234
5.28629e-05
-0.000114325
6.07954e-05
-0.000118935
6.86855e-05
-0.00012421
7.71361e-05
-0.000130578
8.76363e-05
-0.000139194
0.000106133
-0.000156742
0.000137101
-0.000189358
0.000173635
-0.000215843
0.000200685
-0.000208991
0.000238637
-0.000207915
0.000264131
-0.000172545
0.000257777
-0.00011174
0.00024613
-5.30246e-05
0.000261403
-2.25855e-05
0.000300004
1.68286e-05
0.000331529
0.000102317
0.000174193
0.000341801
9.6488e-06
-8.88135e-05
1.50722e-05
-0.000118764
1.97901e-05
-0.000113203
2.57503e-05
-0.000111254
3.21569e-05
-0.000113246
3.84463e-05
-0.000116523
4.45673e-05
-0.000120446
5.08506e-05
-0.000125219
5.84938e-05
-0.000131853
7.09241e-05
-0.000143008
9.30542e-05
-0.000161324
0.000129663
-0.000193351
0.000175741
-0.000235436
0.000198239
-0.000238341
0.000227931
-0.000238684
0.000245343
-0.000225328
0.000239196
-0.000166397
0.000201254
-7.37981e-05
0.000173863
-2.56337e-05
0.000179679
-2.84009e-05
0.000218116
-2.16086e-05
0.000267637
5.27961e-05
0.000140452
0.000301378
9.49545e-06
-9.8309e-05
1.29215e-05
-0.00012219
1.63576e-05
-0.000116639
2.13367e-05
-0.000116233
2.65774e-05
-0.000118486
3.20088e-05
-0.000121954
3.8827e-05
-0.000127264
4.88807e-05
-0.000135273
6.75226e-05
-0.000150495
9.89099e-05
-0.000174396
0.000153991
-0.000216405
0.000205935
-0.000245295
0.000231869
-0.00026137
0.000218079
-0.000224551
0.000201642
-0.000222247
0.000191983
-0.000215669
0.000175234
-0.000149649
0.00013665
-3.52144e-05
0.00011644
-5.42363e-06
0.00011784
-2.98003e-05
0.000137512
-4.12807e-05
0.000177811
1.24975e-05
9.12679e-05
0.000226995
1.02335e-05
-0.000108542
1.11839e-05
-0.00012314
1.37956e-05
-0.000119251
1.94166e-05
-0.000121854
2.66532e-05
-0.000125723
3.7312e-05
-0.000132613
5.45653e-05
-0.000144517
8.18145e-05
-0.000162522
0.000134223
-0.000202904
0.000191012
-0.000231184
0.000236048
-0.000261441
0.000260158
-0.000269405
0.000246347
-0.000247559
0.00019973
-0.000177936
0.000164147
-0.000186663
0.000140583
-0.000192105
0.000123633
-0.000132698
0.000100785
-1.23666e-05
8.70564e-05
8.30491e-06
7.9005e-05
-2.17488e-05
8.01015e-05
-4.23772e-05
0.000110431
-1.7832e-05
3.29925e-05
0.000168706
1.29649e-05
-0.000121507
1.43078e-05
-0.000124483
2.0064e-05
-0.000125007
3.17454e-05
-0.000133536
5.01788e-05
-0.000144156
8.4726e-05
-0.00016716
0.000123223
-0.000183014
0.000164384
-0.000203683
0.000199644
-0.000238164
0.00023878
-0.000270319
0.000265555
-0.000288216
0.000273643
-0.000277493
0.000252668
-0.000226584
0.000198343
-0.00012361
0.0001489
-0.000137221
0.000119783
-0.000162988
9.68586e-05
-0.000109774
7.62231e-05
8.26884e-06
6.44187e-05
2.01092e-05
5.58122e-05
-1.31423e-05
5.22607e-05
-3.88258e-05
7.54799e-05
-4.10512e-05
-2.30388e-05
0.000131511
1.39299e-05
-0.000135437
2.90124e-05
-0.000139565
4.38092e-05
-0.000139804
6.20658e-05
-0.000151792
8.41781e-05
-0.000166269
0.000103126
-0.000186108
0.000128078
-0.000207966
0.000159241
-0.000234845
0.000190445
-0.000269369
0.000223486
-0.00030336
0.000248971
-0.000313701
0.000254168
-0.00028269
0.000235948
-0.000208363
0.00019336
-8.10231e-05
0.000142613
-8.64731e-05
0.000107052
-0.000127427
7.51314e-05
-7.78535e-05
4.9752e-05
3.36481e-05
4.12491e-05
2.86122e-05
3.58896e-05
-7.78281e-06
3.55329e-05
-3.84693e-05
5.38411e-05
-5.93594e-05
-6.54795e-05
9.6282e-05
7.03224e-06
-0.000142469
2.2031e-05
-0.000154564
3.8479e-05
-0.000156252
5.30203e-05
-0.000166334
6.80855e-05
-0.000181334
8.28169e-05
-0.00020084
9.95686e-05
-0.000224718
0.000121445
-0.000256721
0.000149768
-0.000297692
0.000178661
-0.000332252
0.000194414
-0.000329455
0.000191878
-0.000280153
0.000176138
-0.000192623
0.000152603
-5.74885e-05
0.000120193
-5.40636e-05
8.40792e-05
-9.13128e-05
4.15219e-05
-3.52963e-05
1.45354e-05
6.06346e-05
1.05032e-05
3.26445e-05
1.02026e-05
-7.48217e-06
1.38019e-05
-4.20687e-05
2.93963e-05
-7.49537e-05
-9.80598e-05
6.19767e-05
7.35005e-06
-0.000149819
1.74897e-05
-0.000164704
2.76735e-05
-0.000166436
3.71889e-05
-0.000175849
4.62185e-05
-0.000190363
5.48167e-05
-0.000209438
6.46858e-05
-0.000234587
7.87314e-05
-0.000270767
9.66317e-05
-0.000315592
0.000108677
-0.000344298
0.000108931
-0.000329708
9.89254e-05
-0.000270148
8.47587e-05
-0.000178457
8.53949e-05
-5.81247e-05
7.8269e-05
-4.69376e-05
4.23494e-05
-5.53932e-05
-9.89667e-06
1.69497e-05
-2.73267e-05
7.80646e-05
-2.35587e-05
2.88764e-05
-2.2043e-05
-8.99802e-06
-1.89866e-05
-4.51248e-05
-1.02751e-05
-8.36651e-05
-0.00011665
8.31546e-06
6.86071e-06
-0.00015668
1.10526e-05
-0.000168896
1.63614e-05
-0.000171745
2.12989e-05
-0.000180787
2.50351e-05
-0.0001941
2.73078e-05
-0.000211711
2.87075e-05
-0.000235987
3.02807e-05
-0.00027234
2.90803e-05
-0.000314392
2.01411e-05
-0.000335359
6.56075e-06
-0.000316127
-4.56814e-06
-0.000259019
-2.01275e-06
-0.000181012
1.41822e-05
-7.43196e-05
9.38533e-06
-4.21407e-05
-3.93393e-05
-6.66867e-06
-8.46334e-05
6.2244e-05
-7.17256e-05
6.51568e-05
-6.14015e-05
1.85523e-05
-5.79597e-05
-1.24399e-05
-5.79829e-05
-4.51016e-05
-6.05405e-05
-8.11076e-05
-0.000116322
-6.08687e-05
4.26649e-06
-0.000160947
4.83471e-06
-0.000169464
6.50562e-06
-0.000173416
7.21503e-06
-0.000181496
5.98936e-06
-0.000192874
2.08036e-06
-0.000207802
-5.17442e-06
-0.000228732
-1.84476e-05
-0.000259067
-3.92315e-05
-0.000293608
-6.33924e-05
-0.000311198
-8.22711e-05
-0.000297249
-8.93366e-05
-0.000251953
-9.2123e-05
-0.000178226
-7.34475e-05
-9.29951e-05
-8.65272e-05
-2.90609e-05
-0.000127907
3.47114e-05
-0.000133808
6.81448e-05
-0.000107088
3.84363e-05
-9.50948e-05
6.5591e-06
-9.12815e-05
-1.62531e-05
-9.45721e-05
-4.18111e-05
-0.000105962
-6.97176e-05
-0.000100296
-0.000121988
9.91358e-07
-0.000161938
-2.90739e-07
-0.000168182
-1.74452e-06
-0.000171962
-4.59697e-06
-0.000178644
-9.84759e-06
-0.000187623
-1.87054e-05
-0.000198944
-3.34559e-05
-0.000213981
-5.68415e-05
-0.000235681
-8.93464e-05
-0.000261103
-0.000124291
-0.000276253
-0.00015355
-0.00026799
-0.000174827
-0.000230676
-0.000189952
-0.0001631
-0.00019704
-8.59069e-05
-0.000205894
-2.0207e-05
-0.000196445
2.52624e-05
-0.000162105
3.38044e-05
-0.000132323
8.65441e-06
-0.000120847
-4.91759e-06
-0.000117415
-1.96848e-05
-0.000122128
-3.70986e-05
-0.000136796
-5.50497e-05
-7.47057e-05
-0.000162387
-1.6666e-06
-0.000160272
-4.81489e-06
-0.000165034
-8.48514e-06
-0.000168292
-1.38056e-05
-0.000173323
-2.15384e-05
-0.000179891
-3.28794e-05
-0.000187603
-5.01902e-05
-0.000196671
-7.66657e-05
-0.000209206
-0.000113038
-0.000224731
-0.000154942
-0.000234349
-0.000196155
-0.000226777
-0.000231216
-0.000195616
-0.000250933
-0.000143383
-0.000252278
-8.45619e-05
-0.000238578
-3.39066e-05
-0.000207166
-6.15041e-06
-0.000168295
-5.06699e-06
-0.000146922
-1.27186e-05
-0.000137314
-1.45249e-05
-0.000134379
-2.26203e-05
-0.00013972
-3.1758e-05
-0.000153833
-4.09364e-05
-4.88129e-05
-0.000179726
-3.62657e-06
-0.000156645
-8.14109e-06
-0.000160519
-1.34986e-05
-0.000162934
-2.03325e-05
-0.000166489
-2.92987e-05
-0.000170924
-4.11939e-05
-0.000175707
-5.75414e-05
-0.000180323
-8.11676e-05
-0.00018558
-0.000113993
-0.000191905
-0.000153343
-0.000194999
-0.000192703
-0.000187416
-0.000224073
-0.000164246
-0.00023947
-0.000127985
-0.000236134
-8.78975e-05
-0.000215815
-5.42265e-05
-0.000186687
-3.5278e-05
-0.000162978
-2.87764e-05
-0.000151236
-2.44606e-05
-0.000144412
-2.13494e-05
-0.000143157
-2.38758e-05
-0.000148215
-2.67e-05
-0.00016029
-2.88619e-05
-2.83286e-05
-0.000180774
-4.96659e-06
-0.000151678
-1.05567e-05
-0.000154929
-1.69573e-05
-0.000156534
-2.46108e-05
-0.000158836
-3.399e-05
-0.000161545
-4.54964e-05
-0.000164201
-5.97161e-05
-0.000166103
-7.82525e-05
-0.000167043
-0.000102898
-0.00016726
-0.000132499
-0.000165398
-0.000162102
-0.000157813
-0.000184922
-0.000141426
-0.000195741
-0.000117166
-0.000193631
-9.00071e-05
-0.000181297
-6.65607e-05
-0.000166078
-5.04973e-05
-0.000155322
-3.95327e-05
-0.000149085
-3.06971e-05
-0.000144895
-2.55394e-05
-0.000145031
-2.37397e-05
-0.000149828
-2.19034e-05
-0.000159516
-1.91742e-05
-1.34207e-05
-0.000174424
-5.83152e-06
-0.000145847
-1.21438e-05
-0.000148617
-1.91358e-05
-0.000149542
-2.71346e-05
-0.000150837
-3.64689e-05
-0.000152211
-4.73499e-05
-0.00015332
-5.98348e-05
-0.000153618
-7.42879e-05
-0.00015259
-9.15505e-05
-0.000149998
-0.000111516
-0.000145433
-0.000131722
-0.000137606
-0.000148179
-0.000124969
-0.000157729
-0.000107616
-0.000159644
-8.80921e-05
-0.000156093
-7.01114e-05
-0.000151012
-5.55788e-05
-0.00014672
-4.38243e-05
-0.000143247
-3.41704e-05
-0.000141183
-2.76033e-05
-0.000142237
-2.2686e-05
-0.000146397
-1.77428e-05
-0.000153734
-1.18377e-05
-3.13806e-06
-0.000164017
-6.33635e-06
-0.000139511
-1.30579e-05
-0.000141895
-2.03132e-05
-0.000142286
-2.83451e-05
-0.000142805
-3.73776e-05
-0.000143178
-4.75564e-05
-0.000143142
-5.88437e-05
-0.000142331
-7.11072e-05
-0.000140327
-8.43979e-05
-0.000136707
-9.87124e-05
-0.000131119
-0.000113113
-0.000123205
-0.000125566
-0.000112516
-0.00013417
-9.9012e-05
-0.000138384
-8.38773e-05
-0.000139275
-6.92208e-05
-0.000138509
-5.63449e-05
-0.000137106
-4.52272e-05
-0.000135472
-3.58042e-05
-0.000135001
-2.80743e-05
-0.000136463
-2.12247e-05
-0.000139791
-1.4415e-05
-0.000145026
-6.60231e-06
3.53001e-06
-0.000151694
-6.56803e-06
-0.000132942
-1.34429e-05
-0.00013502
-2.0721e-05
-0.000135008
-2.85802e-05
-0.000134946
-3.7165e-05
-0.000134593
-4.65702e-05
-0.000133736
-5.6788e-05
-0.000132113
-6.76672e-05
-0.000129447
-7.89552e-05
-0.000125419
-9.03672e-05
-0.000119707
-0.000101441
-0.000112131
-0.000111303
-0.000102654
-0.000118887
-9.14277e-05
-0.000123655
-7.91087e-05
-0.000126047
-6.68295e-05
-0.000126913
-5.54779e-05
-0.000126967
-4.51737e-05
-0.000126789
-3.59824e-05
-0.000127302
-2.7561e-05
-0.000128842
-1.96853e-05
-0.000131358
-1.18986e-05
-0.000134932
-3.0286e-06
7.51972e-06
-0.000138922
-6.59032e-06
-0.000126352
-1.34255e-05
-0.000128185
-2.0554e-05
-0.00012788
-2.8105e-05
-0.000127395
-3.61669e-05
-0.000126532
-4.47825e-05
-0.000125121
-5.39308e-05
-0.000122965
-6.3507e-05
-0.000119871
-7.32823e-05
-0.000115643
-8.29169e-05
-0.000110072
-9.20213e-05
-0.000103027
-0.000100122
-9.45534e-05
-0.000106671
-8.48788e-05
-0.000111335
-7.44453e-05
-0.00011428
-6.3884e-05
-0.000116002
-5.37564e-05
-0.000117015
-4.41604e-05
-0.000117846
-3.51512e-05
-0.00011883
-2.65767e-05
-0.000120224
-1.82922e-05
-0.000122132
-9.98971e-06
-0.000124378
-7.82675e-07
9.65317e-06
-0.000126512
-6.46028e-06
-0.000119892
-1.31159e-05
-0.000121529
-1.99777e-05
-0.000121018
-2.71366e-05
-0.000120236
-3.46437e-05
-0.000119024
-4.25084e-05
-0.000117256
-5.06851e-05
-0.000114789
-5.90775e-05
-0.000111479
-6.75286e-05
-0.000107192
-7.57911e-05
-0.00010181
-8.35415e-05
-9.52767e-05
-9.04355e-05
-8.76593e-05
-9.61652e-05
-7.91491e-05
-0.000100566
-7.00446e-05
-0.00010373
-6.072e-05
-0.000105963
-5.15236e-05
-0.000107545
-4.25783e-05
-0.000108847
-3.38497e-05
-0.00011005
-2.53734e-05
-0.000111265
-1.70771e-05
-0.000112617
-8.63843e-06
-0.000113943
5.43219e-07
1.05545e-05
-0.000114844
-6.22413e-06
-0.000113668
-1.26022e-05
-0.000115151
-1.91211e-05
-0.000114499
-2.58405e-05
-0.000113517
-3.2788e-05
-0.000112077
-3.99574e-05
-0.000110087
-4.73018e-05
-0.000107444
-5.47294e-05
-0.000104051
-6.2103e-05
-9.98188e-05
-6.92374e-05
-9.46757e-05
-7.59083e-05
-8.86057e-05
-8.18849e-05
-8.16824e-05
-8.6978e-05
-7.40559e-05
-9.1094e-05
-6.59287e-05
-9.42782e-05
-5.75357e-05
-9.67114e-05
-4.90903e-05
-9.85791e-05
-4.07108e-05
-0.000100037
-3.23918e-05
-0.000101243
-2.41677e-05
-0.000102355
-1.59651e-05
-0.000103293
-7.70007e-06
-0.000103948
1.19786e-06
1.06588e-05
-0.000104052
-5.91632e-06
-0.000107752
-1.19516e-05
-0.000109116
-1.80795e-05
-0.000108371
-2.43358e-05
-0.000107261
-3.07324e-05
-0.00010568
-3.72536e-05
-0.000103566
-4.38537e-05
-0.000100844
-5.04539e-05
-9.74509e-05
-5.6942e-05
-9.3331e-05
-6.31728e-05
-8.84452e-05
-6.89862e-05
-8.27923e-05
-7.4234e-05
-7.64343e-05
-7.87985e-05
-6.94913e-05
-8.26131e-05
-6.21141e-05
-8.56931e-05
-5.44557e-05
-8.81367e-05
-4.66466e-05
-9.00548e-05
-3.87927e-05
-9.15554e-05
-3.08913e-05
-9.27411e-05
-2.2982e-05
-9.36036e-05
-1.51026e-05
-9.42979e-05
-7.00568e-06
-9.45135e-05
1.4135e-06
1.02785e-05
-9.41334e-05
-5.56148e-06
-0.00010219
-1.12139e-05
-0.000103464
-1.69234e-05
-0.000102662
-2.27085e-05
-0.000101476
-2.85708e-05
-9.98181e-05
-3.44894e-05
-9.76473e-05
-4.04207e-05
-9.4913e-05
-4.62988e-05
-9.15727e-05
-5.20372e-05
-8.75927e-05
-5.75276e-05
-8.29549e-05
-6.26494e-05
-7.76703e-05
-6.7293e-05
-7.17907e-05
-7.13799e-05
-6.54043e-05
-7.48722e-05
-5.86217e-05
-7.77748e-05
-5.15531e-05
-8.01319e-05
-4.42895e-05
-8.20048e-05
-3.692e-05
-8.34563e-05
-2.944e-05
-8.45307e-05
-2.19076e-05
-8.53176e-05
-1.43157e-05
-8.57258e-05
-6.59745e-06
-8.56724e-05
1.36012e-06
9.62947e-06
-8.50233e-05
-5.17646e-06
-9.70136e-05
-1.04236e-05
-9.82164e-05
-1.57015e-05
-9.73838e-05
-2.1018e-05
-9.6159e-05
-2.63671e-05
-9.44691e-05
-3.17264e-05
-9.2288e-05
-3.70571e-05
-8.95821e-05
-4.2304e-05
-8.63257e-05
-4.73967e-05
-8.25002e-05
-5.22515e-05
-7.80999e-05
-5.67817e-05
-7.31398e-05
-6.09094e-05
-6.76631e-05
-6.45761e-05
-6.17377e-05
-6.77519e-05
-5.54459e-05
-7.04348e-05
-4.88701e-05
-7.26415e-05
-4.20827e-05
-7.44221e-05
-3.51394e-05
-7.57904e-05
-2.80719e-05
-7.67653e-05
-2.0933e-05
-7.7382e-05
-1.36991e-05
-7.76294e-05
-6.35003e-06
-7.74201e-05
1.15077e-06
8.85185e-06
-7.66425e-05
-4.77356e-06
-9.224e-05
-9.60502e-06
-9.33849e-05
-1.4448e-05
-9.25408e-05
-1.93044e-05
-9.13025e-05
-2.41627e-05
-8.96108e-05
-2.90008e-05
-8.74499e-05
-3.37838e-05
-8.47991e-05
-3.84662e-05
-8.16434e-05
-4.29921e-05
-7.79745e-05
-4.72974e-05
-7.37943e-05
-5.13164e-05
-6.91207e-05
-5.49897e-05
-6.39897e-05
-5.82735e-05
-5.8454e-05
-6.11425e-05
-5.25768e-05
-6.35882e-05
-4.64244e-05
-6.56174e-05
-4.00536e-05
-6.72517e-05
-3.35053e-05
-6.85005e-05
-2.68232e-05
-6.93772e-05
-2.00564e-05
-6.99138e-05
-1.31625e-05
-7.00328e-05
-6.231e-06
-6.97276e-05
8.45532e-07
8.03231e-06
-6.89082e-05
-4.36234e-06
-8.78777e-05
-8.77535e-06
-8.89718e-05
-1.31866e-05
-8.81295e-05
-1.75946e-05
-8.68942e-05
-2.19845e-05
-8.52208e-05
-2.63349e-05
-8.30993e-05
-3.06154e-05
-8.05184e-05
-3.4788e-05
-7.7471e-05
-3.88075e-05
-7.39551e-05
-4.26239e-05
-6.99777e-05
-4.61873e-05
-6.55572e-05
-4.94523e-05
-6.07246e-05
-5.23836e-05
-5.55226e-05
-5.49589e-05
-5.00016e-05
-5.71684e-05
-4.42149e-05
-5.90116e-05
-3.82105e-05
-6.04936e-05
-3.20235e-05
-6.16153e-05
-2.57017e-05
-6.241e-05
-1.92616e-05
-6.283e-05
-1.27424e-05
-6.28935e-05
-6.16744e-06
-6.25438e-05
4.95873e-07
7.22727e-06
-6.17388e-05
-3.95052e-06
-8.39272e-05
-7.94743e-06
-8.49749e-05
-1.19339e-05
-8.41429e-05
-1.59067e-05
-8.29213e-05
-1.9849e-05
-8.12783e-05
-2.37407e-05
-7.92073e-05
-2.75553e-05
-7.67037e-05
-3.1261e-05
-7.37652e-05
-3.48213e-05
-7.03947e-05
-3.81969e-05
-6.6602e-05
-4.13488e-05
-6.24052e-05
-4.42417e-05
-5.78317e-05
-4.68468e-05
-5.29174e-05
-4.9144e-05
-4.77042e-05
-5.11224e-05
-4.22366e-05
-5.27776e-05
-3.65555e-05
-5.41055e-05
-3.06957e-05
-5.51178e-05
-2.46896e-05
-5.58068e-05
-1.85726e-05
-5.61506e-05
-1.23985e-05
-5.61653e-05
-6.15267e-06
-5.58142e-05
1.44761e-07
6.47304e-06
-5.506e-05
-3.54428e-06
-8.03829e-05
-7.13056e-06
-8.13887e-05
-1.07014e-05
-8.05718e-05
-1.42521e-05
-7.93707e-05
-1.77658e-05
-7.77647e-05
-2.12236e-05
-7.57495e-05
-2.46025e-05
-7.33248e-05
-2.78758e-05
-7.04918e-05
-3.10139e-05
-6.72565e-05
-3.39856e-05
-6.36302e-05
-3.67601e-05
-5.96307e-05
-3.93091e-05
-5.52826e-05
-4.16094e-05
-5.06171e-05
-4.36436e-05
-4.567e-05
-4.54002e-05
-4.048e-05
-4.68714e-05
-3.50845e-05
-4.80513e-05
-2.95158e-05
-4.89409e-05
-2.37998e-05
-4.95367e-05
-1.79767e-05
-4.98439e-05
-1.20911e-05
-4.98326e-05
-6.16405e-06
-4.94937e-05
-1.94217e-07
5.78716e-06
-4.88079e-05
-3.14708e-06
-7.72357e-05
-6.33021e-06
-7.82057e-05
-9.49553e-06
-7.74062e-05
-1.26372e-05
-7.6229e-05
-1.57392e-05
-7.46628e-05
-1.87842e-05
-7.27046e-05
-2.17523e-05
-7.03568e-05
-2.46211e-05
-6.7623e-05
-2.73665e-05
-6.4511e-05
-2.99634e-05
-6.10331e-05
-3.23874e-05
-5.72066e-05
-3.46158e-05
-5.30542e-05
-3.66293e-05
-4.86034e-05
-3.84134e-05
-4.38859e-05
-3.99575e-05
-3.8936e-05
-4.12535e-05
-3.37885e-05
-4.22942e-05
-2.84751e-05
-4.30735e-05
-2.30203e-05
-4.35937e-05
-1.74563e-05
-4.38474e-05
-1.18374e-05
-4.38374e-05
-6.17419e-06
-4.35293e-05
-5.0235e-07
5.18128e-06
-4.29235e-05
-2.759e-06
-7.44768e-05
-5.54744e-06
-7.54171e-05
-8.31762e-06
-7.46359e-05
-1.10629e-05
-7.34836e-05
-1.37685e-05
-7.19571e-05
-1.64189e-05
-7.00543e-05
-1.89969e-05
-6.77788e-05
-2.14839e-05
-6.51359e-05
-2.38602e-05
-6.21346e-05
-2.6106e-05
-5.87874e-05
-2.82014e-05
-5.51112e-05
-3.01283e-05
-5.11272e-05
-3.18709e-05
-4.68606e-05
-3.34171e-05
-4.23397e-05
-3.47574e-05
-3.75957e-05
-3.58846e-05
-3.26613e-05
-3.67915e-05
-2.75681e-05
-3.74699e-05
-2.23418e-05
-3.7921e-05
-1.70051e-05
-3.81515e-05
-1.16069e-05
-3.81359e-05
-6.18991e-06
-3.78719e-05
-7.66429e-07
4.66308e-06
-3.73536e-05
-2.37659e-06
-7.21004e-05
-4.77984e-06
-7.30137e-05
-7.16555e-06
-7.22502e-05
-9.5267e-06
-7.11224e-05
-1.185e-05
-6.9634e-05
-1.41215e-05
-6.77829e-05
-1.63267e-05
-6.55736e-05
-1.84503e-05
-6.30122e-05
-2.04767e-05
-6.01081e-05
-2.239e-05
-5.68741e-05
-2.41745e-05
-5.33267e-05
-2.58157e-05
-4.94859e-05
-2.73009e-05
-4.53752e-05
-2.862e-05
-4.10206e-05
-2.97651e-05
-3.64506e-05
-3.07302e-05
-3.16961e-05
-3.15099e-05
-2.67884e-05
-3.2097e-05
-2.17546e-05
-3.24863e-05
-1.66158e-05
-3.26852e-05
-1.14079e-05
-3.26908e-05
-6.18437e-06
-3.24777e-05
-9.79522e-07
4.23547e-06
-3.20499e-05
-1.99204e-06
-7.01084e-05
-4.0212e-06
-7.09846e-05
-6.03414e-06
-7.02373e-05
-8.02343e-06
-6.91333e-05
-9.97765e-06
-6.768e-05
-1.18848e-05
-6.5876e-05
-1.37326e-05
-6.37258e-05