/*--------------------------------*- C++ -*----------------------------------*\
| =========                 |                                                 |
| \\      /  F ield         | OpenFOAM: The Open Source CFD Toolbox           |
|  \\    /   O peration     | Version:  5.x                                   |
|   \\  /    A nd           | Web:      www.OpenFOAM.org                      |
|    \\/     M anipulation  |                                                 |
\*---------------------------------------------------------------------------*/
FoamFile
{
    version     2.0;
    format      ascii;
    class       volVectorField;
    location    "0.2";
    object      U;
}
// * * * * * * * * * * * * * * * * * * * * * * * * * * * * * * * * * * * * * //

dimensions      [0 1 -1 0 0 0 0];

internalField   nonuniform List<vector> 
2268
(
(0.00394716 -0.00543739 0)
(0.0492929 -0.0151952 0)
(0.122115 -0.0170834 0)
(0.194087 -0.015842 0)
(0.258866 -0.0144734 0)
(0.318364 -0.0138001 0)
(0.376283 -0.013719 0)
(0.43486 -0.0139381 0)
(0.49467 -0.0141963 0)
(0.555372 -0.0143086 0)
(0.616073 -0.0141435 0)
(0.675377 -0.0135784 0)
(0.731316 -0.0124605 0)
(0.781166 -0.0105894 0)
(0.821045 -0.00759919 0)
(0.845851 -0.00231342 0)
(0.843324 0.0088429 0)
(0.789394 0.0278999 0)
(0.661878 0.0541064 0)
(0.438102 0.0797914 0)
(0.129325 0.0822765 0)
(-0.232318 -0.0211942 0)
(-0.167467 -0.151173 0)
(0.00417116 -0.0165594 0)
(0.0500699 -0.0457049 0)
(0.123068 -0.0513896 0)
(0.194878 -0.0477554 0)
(0.259512 -0.0436758 0)
(0.319087 -0.0416655 0)
(0.377253 -0.041446 0)
(0.436161 -0.0421263 0)
(0.496356 -0.0429191 0)
(0.557497 -0.043281 0)
(0.61873 -0.0428261 0)
(0.678708 -0.0411832 0)
(0.735511 -0.0378946 0)
(0.786519 -0.0323381 0)
(0.828313 -0.0235691 0)
(0.856255 -0.00955864 0)
(0.870257 0.0133198 0)
(0.875263 0.0498167 0)
(0.861279 0.103038 0)
(0.786148 0.169614 0)
(0.592277 0.217101 0)
(0.200418 0.1614 0)
(0.131163 -0.0910872 0)
(0.00455084 -0.0279722 0)
(0.0510304 -0.0761256 0)
(0.123776 -0.0854781 0)
(0.194793 -0.0794718 0)
(0.258714 -0.0727167 0)
(0.317985 -0.0694348 0)
(0.376184 -0.0691556 0)
(0.435315 -0.0703512 0)
(0.495852 -0.0717123 0)
(0.557458 -0.0723638 0)
(0.619326 -0.0716847 0)
(0.680188 -0.0690637 0)
(0.738236 -0.063745 0)
(0.790991 -0.0547109 0)
(0.835219 -0.0405777 0)
(0.866605 -0.0195374 0)
(0.880049 0.00996196 0)
(0.871422 0.0530106 0)
(0.84611 0.116881 0)
(0.811511 0.208774 0)
(0.762234 0.303347 0)
(0.513455 0.293627 0)
(0.284496 0.0472145 0)
(0.00515892 -0.0397721 0)
(0.052471 -0.106516 0)
(0.124788 -0.119238 0)
(0.194703 -0.110815 0)
(0.257675 -0.101511 0)
(0.316574 -0.0971374 0)
(0.374879 -0.0969489 0)
(0.434391 -0.0987569 0)
(0.49548 -0.100758 0)
(0.55782 -0.101784 0)
(0.620672 -0.101004 0)
(0.682883 -0.0975825 0)
(0.742809 -0.0904816 0)
(0.798171 -0.0783235 0)
(0.845875 -0.0592993 0)
(0.881728 -0.0312494 0)
(0.901107 0.00857816 0)
(0.89806 0.0632004 0)
(0.869213 0.135722 0)
(0.811733 0.230921 0)
(0.771808 0.350203 0)
(0.627463 0.404965 0)
(0.365996 0.254767 0)
(0.00602761 -0.0521347 0)
(0.0543723 -0.136907 0)
(0.126009 -0.152509 0)
(0.194494 -0.141598 0)
(0.256309 -0.129963 0)
(0.314785 -0.124767 0)
(0.373263 -0.124868 0)
(0.433273 -0.127409 0)
(0.495063 -0.130146 0)
(0.558323 -0.131666 0)
(0.622418 -0.130957 0)
(0.686352 -0.126984 0)
(0.748703 -0.118451 0)
(0.807432 -0.103607 0)
(0.859625 -0.0801673 0)
(0.90118 -0.045424 0)
(0.92754 0.00357105 0)
(0.933169 0.0698662 0)
(0.913575 0.156086 0)
(0.853757 0.259858 0)
(0.77535 0.389514 0)
(0.648933 0.509545 0)
(0.396792 0.476591 0)
(0.00722965 -0.0653458 0)
(0.0566719 -0.16728 0)
(0.127304 -0.185153 0)
(0.194038 -0.1717 0)
(0.254526 -0.15803 0)
(0.312554 -0.152352 0)
(0.371246 -0.152974 0)
(0.431813 -0.156384 0)
(0.494369 -0.159968 0)
(0.558649 -0.162134 0)
(0.624152 -0.161728 0)
(0.690095 -0.157554 0)
(0.755335 -0.148074 0)
(0.818086 -0.131155 0)
(0.875612 -0.103976 0)
(0.923961 -0.0632993 0)
(0.958617 -0.00578729 0)
(0.974107 0.0717734 0)
(0.965063 0.172538 0)
(0.918258 0.294685 0)
(0.821827 0.440389 0)
(0.669396 0.616694 0)
(0.409036 0.718473 0)
(0.00878583 -0.0794468 0)
(0.0592159 -0.197568 0)
(0.128491 -0.217121 0)
(0.193217 -0.201115 0)
(0.252265 -0.185718 0)
(0.309829 -0.179889 0)
(0.368747 -0.181247 0)
(0.429871 -0.185643 0)
(0.493192 -0.190169 0)
(0.558516 -0.19312 0)
(0.625518 -0.193245 0)
(0.693689 -0.189222 0)
(0.762188 -0.17929 0)
(0.82947 -0.160907 0)
(0.893011 -0.130735 0)
(0.949152 -0.0850566 0)
(0.993653 -0.0203594 0)
(1.02092 0.067457 0)
(1.02431 0.182333 0)
(0.993265 0.326795 0)
(0.905906 0.501127 0)
(0.737236 0.721486 0)
(0.46331 0.969794 0)
(0.0105847 -0.0944247 0)
(0.0617705 -0.227874 0)
(0.12938 -0.248387 0)
(0.191969 -0.229849 0)
(0.249553 -0.213084 0)
(0.306642 -0.207421 0)
(0.365756 -0.20969 0)
(0.427383 -0.215156 0)
(0.491415 -0.220699 0)
(0.55776 -0.224547 0)
(0.62632 -0.225396 0)
(0.696895 -0.221819 0)
(0.768937 -0.211781 0)
(0.841166 -0.192266 0)
(0.91137 -0.159453 0)
(0.97624 -0.109299 0)
(1.03194 -0.0379573 0)
(1.07283 0.0590503 0)
(1.09201 0.186686 0)
(1.0799 0.351601 0)
(1.01361 0.561984 0)
(0.865163 0.836587 0)
(0.459804 1.28785 0)
(0.00180212 -0.0041025 0)
(0.013462 -0.000328298 0)
(0.0121886 0.000842332 0)
(0.0136698 -0.000520544 0)
(0.0233237 -0.00152304 0)
(0.0333773 -0.00191942 0)
(0.044057 -0.00177936 0)
(0.0527784 -0.0013853 0)
(0.058908 -0.00086997 0)
(0.0621196 -0.00032936 0)
(0.0625037 0.000211214 0)
(0.0603686 0.000653047 0)
(0.0561428 0.00104027 0)
(0.0501241 0.00129483 0)
(0.0426703 0.00157284 0)
(0.0341842 0.00172347 0)
(0.0249061 0.00185671 0)
(0.0151313 0.00194555 0)
(0.0050434 0.00201593 0)
(-0.018768 -0.00307908 0)
(-0.00735957 -0.00214606 0)
(-0.00140669 -0.00124981 0)
(0.00769132 -0.00494861 0)
(0.0223559 -0.00656325 0)
(0.0352286 -0.00731357 0)
(0.0481579 -0.00661415 0)
(0.058728 -0.00507673 0)
(0.0660779 -0.00319532 0)
(0.069972 -0.00125914 0)
(0.0705778 0.000561991 0)
(0.0682815 0.0021213 0)
(0.0635602 0.00343245 0)
(0.0567937 0.00441958 0)
(0.0483888 0.00528379 0)
(0.03876 0.00587628 0)
(0.0282622 0.00631358 0)
(0.0171592 0.00657794 0)
(0.00567645 0.00665562 0)
(-0.0192966 0.00215238 0)
(-0.00462379 -0.00502979 0)
(0.000804052 -0.00451048 0)
(0.00780313 -0.0105625 0)
(0.0222078 -0.0120907 0)
(0.0350332 -0.0130492 0)
(0.0481706 -0.0116687 0)
(0.058698 -0.00889903 0)
(0.0659444 -0.00557176 0)
(0.0697464 -0.00215084 0)
(0.0702663 0.000983763 0)
(0.0679067 0.00369273 0)
(0.0631542 0.00595181 0)
(0.0564017 0.00772279 0)
(0.0480437 0.00916077 0)
(0.0384715 0.0102144 0)
(0.0280448 0.0109799 0)
(0.0170303 0.0114158 0)
(0.00563221 0.011561 0)
(-0.0193795 0.0070063 0)
(-0.00804671 -0.00679516 0)
(-0.0010463 -0.00672257 0)
(0.00536391 -0.0154674 0)
(0.0213934 -0.0175613 0)
(0.0349188 -0.0188959 0)
(0.0489603 -0.0167516 0)
(0.0599267 -0.0127573 0)
(0.067292 -0.00788786 0)
(0.0710212 -0.00300805 0)
(0.0713439 0.00144886 0)
(0.0687663 0.00524446 0)
(0.0637979 0.00845285 0)
(0.0568727 0.0109853 0)
(0.048381 0.0129627 0)
(0.0386991 0.0144657 0)
(0.0281947 0.0155638 0)
(0.0171071 0.0161838 0)
(0.00565683 0.0163773 0)
(-0.0258753 0.00883908 0)
(-0.0178613 -0.00926338 0)
(-0.00526098 -0.0103454 0)
(0.00146133 -0.0211039 0)
(0.0203101 -0.0237316 0)
(0.034899 -0.0253419 0)
(0.0502038 -0.0222708 0)
(0.0618503 -0.0167669 0)
(0.0694647 -0.010215 0)
(0.0731036 -0.0038214 0)
(0.073182 0.00201431 0)
(0.0703249 0.00693057 0)
(0.0650846 0.0110341 0)
(0.0578679 0.0143542 0)
(0.0491463 0.0168443 0)
(0.0392808 0.0188178 0)
(0.0285855 0.0201868 0)
(0.0173277 0.021002 0)
(0.00572989 0.0212442 0)
(-0.0309852 0.0228314 0)
(-0.0260647 -0.00567544 0)
(-0.0116405 -0.0159738 0)
(-0.00559948 -0.0274358 0)
(0.0182277 -0.0307549 0)
(0.0348358 -0.0323819 0)
(0.0519228 -0.0282022 0)
(0.0644134 -0.0209062 0)
(0.0722599 -0.0125957 0)
(0.0757711 -0.00452802 0)
(0.0755436 0.00272325 0)
(0.0722996 0.00877213 0)
(0.0667141 0.0137909 0)
(0.0591561 0.0177979 0)
(0.0501353 0.0208712 0)
(0.0400193 0.0232509 0)
(0.0290831 0.0248935 0)
(0.0176212 0.0259106 0)
(0.00582296 0.0261841 0)
(-0.0476872 0.0209339 0)
(-0.0361529 -0.010466 0)
(-0.0253945 -0.0208898 0)
(-0.0178774 -0.0365258 0)
(0.0137282 -0.039843 0)
(0.0342296 -0.0405758 0)
(0.0538737 -0.0347448 0)
(0.0674749 -0.0253538 0)
(0.0756325 -0.0149624 0)
(0.0790128 -0.00507769 0)
(0.0783854 0.00354063 0)
(0.0746811 0.0107923 0)
(0.0686507 0.0167259 0)
(0.0606803 0.0213973 0)
(0.0513195 0.0250168 0)
(0.0408924 0.0277959 0)
(0.0296819 0.0297274 0)
(0.0179687 0.0309044 0)
(0.00593131 0.0312129 0)
(-0.033071 0.053794 0)
(-0.0677296 0.0127598 0)
(-0.0382986 -0.029927 0)
(-0.0323328 -0.0454273 0)
(0.00852654 -0.0520019 0)
(0.034097 -0.0502507 0)
(0.0567415 -0.0420685 0)
(0.0714941 -0.0300743 0)
(0.0798373 -0.0173778 0)
(0.0828495 -0.00557315 0)
(0.0817168 0.00446704 0)
(0.0774862 0.0129608 0)
(0.0709074 0.0197974 0)
(0.0624545 0.0251176 0)
(0.052699 0.0292684 0)
(0.0419144 0.0324562 0)
(0.0303652 0.0346583 0)
(0.0183667 0.0359906 0)
(0.00606112 0.0363359 0)
(0.0133707 -0.120444 0)
(0.0653525 -0.275187 0)
(0.129996 -0.295046 0)
(0.189204 -0.272785 0)
(0.244625 -0.255083 0)
(0.300988 -0.250591 0)
(0.360252 -0.254741 0)
(0.422434 -0.262158 0)
(0.48738 -0.269639 0)
(0.555244 -0.27546 0)
(0.626383 -0.27836 0)
(0.701128 -0.276742 0)
(0.779479 -0.268089 0)
(0.860878 -0.248732 0)
(0.943802 -0.21404 0)
(1.02514 -0.159012 0)
(1.1013 -0.0789741 0)
(1.16592 0.0312804 0)
(1.21259 0.177928 0)
(1.23869 0.368012 0)
(1.21614 0.620697 0)
(1.22627 0.919785 0)
(1.09727 1.52974 0)
(0.017024 -0.15872 0)
(0.0698703 -0.338165 0)
(0.130142 -0.354671 0)
(0.184582 -0.327921 0)
(0.237244 -0.310548 0)
(0.292713 -0.308825 0)
(0.351971 -0.316134 0)
(0.414558 -0.326609 0)
(0.480424 -0.337282 0)
(0.550185 -0.346776 0)
(0.624971 -0.354058 0)
(0.705872 -0.357273 0)
(0.793922 -0.353701 0)
(0.890193 -0.339187 0)
(0.994286 -0.307155 0)
(1.10258 -0.250067 0)
(1.21112 -0.162266 0)
(1.31468 -0.0351629 0)
(1.40404 0.135764 0)
(1.47982 0.36852 0)
(1.52104 0.661035 0)
(1.59025 0.948564 0)
(1.63513 1.35439 0)
(0.0207192 -0.201564 0)
(0.0735089 -0.398363 0)
(0.128561 -0.408567 0)
(0.178078 -0.378855 0)
(0.228181 -0.364048 0)
(0.282578 -0.36637 0)
(0.341153 -0.377371 0)
(0.403228 -0.391324 0)
(0.469001 -0.406006 0)
(0.539769 -0.420765 0)
(0.617456 -0.434813 0)
(0.703493 -0.446389 0)
(0.800327 -0.453959 0)
(0.911868 -0.451967 0)
(1.03947 -0.429134 0)
(1.17774 -0.376588 0)
(1.32364 -0.29244 0)
(1.46727 -0.159255 0)
(1.60894 0.0196689 0)
(1.74253 0.22401 0)
(1.81557 0.48267 0)
(1.8342 0.794972 0)
(1.86658 1.127 0)
(0.0240774 -0.248146 0)
(0.0757241 -0.455064 0)
(0.125046 -0.457074 0)
(0.169915 -0.426412 0)
(0.217683 -0.4159 0)
(0.270571 -0.422769 0)
(0.327591 -0.437501 0)
(0.3881 -0.455128 0)
(0.452579 -0.474648 0)
(0.523096 -0.496085 0)
(0.601251 -0.51878 0)
(0.68777 -0.541869 0)
(0.787818 -0.565481 0)
(0.91062 -0.581213 0)
(1.05821 -0.575328 0)
(1.21987 -0.543401 0)
(1.38965 -0.500501 0)
(1.56276 -0.4117 0)
(1.68808 -0.264801 0)
(1.76508 0.0480512 0)
(1.84578 0.435518 0)
(1.87744 0.765948 0)
(1.89363 1.04083 0)
(0.0268602 -0.297543 0)
(0.0763307 -0.507114 0)
(0.119667 -0.500015 0)
(0.160377 -0.470681 0)
(0.205897 -0.465674 0)
(0.256614 -0.477107 0)
(0.311119 -0.495421 0)
(0.368689 -0.516901 0)
(0.430039 -0.541838 0)
(0.497063 -0.570004 0)
(0.568716 -0.600943 0)
(0.646465 -0.633859 0)
(0.741449 -0.675295 0)
(0.869174 -0.721612 0)
(1.02537 -0.753451 0)
(1.18409 -0.746406 0)
(1.32153 -0.713868 0)
(1.42851 -0.504878 0)
(1.5565 -0.183125 0)
(1.67696 0.0942567 0)
(1.73057 0.424977 0)
(1.79206 0.779265 0)
(1.84371 1.03622 0)
(0.0289834 -0.348931 0)
(0.075454 -0.554026 0)
(0.11267 -0.538061 0)
(0.149775 -0.512289 0)
(0.192844 -0.5133 0)
(0.240363 -0.528825 0)
(0.290824 -0.550173 0)
(0.342831 -0.574972 0)
(0.39739 -0.60373 0)
(0.454092 -0.635052 0)
(0.510916 -0.668845 0)
(0.575458 -0.707955 0)
(0.666226 -0.787107 0)
(0.800469 -0.892847 0)
(0.965145 -0.946616 0)
(1.11056 -0.894234 0)
(1.24679 -0.778042 0)
(1.35686 -0.596827 0)
(1.47574 -0.162952 0)
(1.61011 0.105253 0)
(1.68542 0.506256 0)
(1.75172 0.834269 0)
(1.8006 1.02317 0)
(0.0305792 -0.401663 0)
(0.0732424 -0.59541 0)
(0.103859 -0.571876 0)
(0.137577 -0.551389 0)
(0.177198 -0.557872 0)
(0.219475 -0.576036 0)
(0.262912 -0.598605 0)
(0.305212 -0.624069 0)
(0.348466 -0.652151 0)
(0.390754 -0.682804 0)
(0.438977 -0.719004 0)
(0.506217 -0.78576 0)
(0.626984 -0.940025 0)
(0.804936 -1.0852 0)
(0.991378 -1.09576 0)
(1.18444 -1.00959 0)
(1.39704 -0.788748 0)
(1.45927 -0.56493 0)
(1.37218 -0.346111 0)
(1.30163 -0.191338 0)
(1.4628 0.176521 0)
(1.72007 0.701167 0)
(1.81747 1.0043 0)
(0.0318473 -0.453581 0)
(0.0693904 -0.62847 0)
(0.0918351 -0.599556 0)
(0.121723 -0.585363 0)
(0.155742 -0.595382 0)
(0.19 -0.613639 0)
(0.223678 -0.635025 0)
(0.255449 -0.658792 0)
(0.29197 -0.687462 0)
(0.337688 -0.727758 0)
(0.420075 -0.793032 0)
(0.57011 -0.929781 0)
(0.799986 -1.13836 0)
(1.04868 -1.24973 0)
(1.14569 -1.17419 0)
(1.249 -1.13972 0)
(1.37842 -0.915967 0)
(1.22971 -0.547568 0)
(0.982745 -0.212427 0)
(0.883028 -0.094354 0)
(0.985134 0.00245465 0)
(1.32055 0.430029 0)
(1.55546 0.884882 0)
(0.0340142 -0.504329 0)
(0.0644911 -0.650745 0)
(0.0750723 -0.620021 0)
(0.101145 -0.613572 0)
(0.128948 -0.625229 0)
(0.15693 -0.642686 0)
(0.188155 -0.664502 0)
(0.228036 -0.695179 0)
(0.295368 -0.744184 0)
(0.425409 -0.831916 0)
(0.625102 -0.971489 0)
(0.976121 -1.16419 0)
(1.26499 -1.36183 0)
(1.27345 -1.29917 0)
(1.09424 -1.25931 0)
(0.964339 -1.21378 0)
(1.05812 -0.856367 0)
(0.878792 -0.263753 0)
(0.653586 -0.0583745 0)
(0.607101 -0.169937 0)
(0.599931 -0.197766 0)
(0.836462 0.185522 0)
(1.10586 0.667066 0)
(0.0395793 -0.559816 0)
(0.0637432 -0.668421 0)
(0.059832 -0.64151 0)
(0.0880114 -0.645508 0)
(0.120971 -0.659914 0)
(0.164934 -0.682327 0)
(0.236116 -0.720919 0)
(0.344482 -0.783168 0)
(0.529801 -0.902653 0)
(0.867476 -1.07674 0)
(1.20595 -1.32385 0)
(1.3666 -1.44493 0)
(1.40285 -1.43529 0)
(1.27273 -1.10139 0)
(0.921485 -1.11189 0)
(0.739788 -1.1056 0)
(0.749895 -0.766489 0)
(0.640198 -0.11311 0)
(0.496022 0.00837158 0)
(0.437427 -0.143295 0)
(0.364003 -0.23061 0)
(0.481525 -0.0130256 0)
(0.743242 0.346079 0)
(0.0443707 -0.621269 0)
(0.081279 -0.686209 0)
(0.081992 -0.665208 0)
(0.132352 -0.687688 0)
(0.207518 -0.716911 0)
(0.327844 -0.773904 0)
(0.568795 -0.886661 0)
(0.764649 -0.988476 0)
(0.993851 -1.22767 0)
(1.18479 -1.37816 0)
(1.3658 -1.50164 0)
(1.47615 -1.48734 0)
(1.45135 -1.27623 0)
(1.30793 -0.797378 0)
(0.85807 -0.888745 0)
(0.663452 -0.96438 0)
(0.606768 -0.663478 0)
(0.493255 -0.0208802 0)
(0.366514 0.0774518 0)
(0.311558 -0.0922082 0)
(0.252231 -0.221935 0)
(0.3091 -0.18124 0)
(0.532491 -0.00245825 0)
(0.0307232 -0.700456 0)
(0.117812 -0.70492 0)
(0.19765 -0.6938 0)
(0.279904 -0.756992 0)
(0.388714 -0.83229 0)
(0.501126 -0.974633 0)
(0.621957 -1.05457 0)
(0.769251 -1.1895 0)
(0.93354 -1.37481 0)
(1.10621 -1.5477 0)
(1.28183 -1.63026 0)
(1.37138 -1.51779 0)
(1.33067 -1.17308 0)
(1.25839 -0.541696 0)
(0.866454 -0.587621 0)
(0.603087 -0.78538 0)
(0.51076 -0.513673 0)
(0.362791 0.0936294 0)
(0.220052 0.136265 0)
(0.196983 -0.0503312 0)
(0.16999 -0.204965 0)
(0.21799 -0.279586 0)
(0.376815 -0.259156 0)
(0.0167813 -0.747093 0)
(0.0679592 -0.750712 0)
(0.163993 -0.792014 0)
(0.247185 -0.859126 0)
(0.325224 -0.942566 0)
(0.405609 -1.05364 0)
(0.489457 -1.17601 0)
(0.589378 -1.33389 0)
(0.720677 -1.53984 0)
(0.8839 -1.73384 0)
(1.0225 -1.76649 0)
(1.03466 -1.54859 0)
(0.965002 -1.10348 0)
(0.984277 -0.369828 0)
(0.744575 -0.351192 0)
(0.482424 -0.590298 0)
(0.367525 -0.317619 0)
(0.140778 0.259717 0)
(0.0437351 0.168059 0)
(0.0559718 -0.0371818 0)
(0.0502171 -0.213922 0)
(0.101478 -0.367623 0)
(0.22283 -0.465325 0)
(0.0211423 -0.787116 0)
(0.0648277 -0.871558 0)
(0.12067 -0.879698 0)
(0.175975 -0.930447 0)
(0.225899 -1.01113 0)
(0.273678 -1.11688 0)
(0.321252 -1.25102 0)
(0.385591 -1.43864 0)
(0.470311 -1.68114 0)
(0.572609 -1.86335 0)
(0.583326 -1.81443 0)
(0.537273 -1.50841 0)
(0.446203 -1.01828 0)
(0.529642 -0.316902 0)
(0.486793 -0.256196 0)
(0.285164 -0.408584 0)
(0.121303 -0.0749576 0)
(-0.18186 0.405526 0)
(-0.143119 0.17261 0)
(-0.126781 -0.0411139 0)
(-0.112737 -0.237119 0)
(-0.0765051 -0.440376 0)
(-0.0128137 -0.605873 0)
(0.0221269 -0.829622 0)
(0.0497832 -0.905464 0)
(0.0727707 -0.917602 0)
(0.103284 -0.968194 0)
(0.127643 -1.04437 0)
(0.145428 -1.14551 0)
(0.154744 -1.28259 0)
(0.169489 -1.48599 0)
(0.168748 -1.73033 0)
(0.153343 -1.86251 0)
(0.047733 -1.7508 0)
(-0.0109774 -1.42733 0)
(-0.0722705 -0.974478 0)
(0.0840971 -0.323725 0)
(0.101844 -0.264435 0)
(-0.0373215 -0.19696 0)
(-0.372099 0.257775 0)
(-0.457498 0.416798 0)
(-0.349211 0.134072 0)
(-0.321805 -0.0565527 0)
(-0.304631 -0.248607 0)
(-0.304682 -0.457909 0)
(-0.333506 -0.64347 0)
(0.0148384 -0.861224 0)
(0.0260413 -0.915398 0)
(0.0305898 -0.934995 0)
(0.0397942 -0.982477 0)
(0.0399294 -1.05007 0)
(0.0280622 -1.13951 0)
(-0.00120455 -1.26499 0)
(-0.046522 -1.45061 0)
(-0.141838 -1.65948 0)
(-0.271296 -1.75529 0)
(-0.422071 -1.65401 0)
(-0.513224 -1.37635 0)
(-0.522073 -0.977111 0)
(-0.374966 -0.510684 0)
(-0.42421 -0.224034 0)
(-0.531604 0.131495 0)
(-0.775771 0.41466 0)
(-0.644563 0.296465 0)
(-0.53305 0.071231 0)
(-0.496815 -0.0760102 0)
(-0.487304 -0.235831 0)
(-0.52203 -0.411192 0)
(-0.612028 -0.595465 0)
(0.00509035 -0.875772 0)
(0.00282424 -0.912169 0)
(-0.00481763 -0.934797 0)
(-0.0138764 -0.975097 0)
(-0.033784 -1.03029 0)
(-0.0694335 -1.10151 0)
(-0.125853 -1.19993 0)
(-0.218546 -1.34213 0)
(-0.378119 -1.50277 0)
(-0.57758 -1.59112 0)
(-0.76854 -1.53651 0)
(-0.920666 -1.29642 0)
(-0.986171 -0.872405 0)
(-1.02277 -0.424796 0)
(-1.11748 -0.09207 0)
(-1.07388 0.221135 0)
(-0.974113 0.318533 0)
(-0.769282 0.125423 0)
(-0.672842 0.0062873 0)
(-0.632932 -0.0959533 0)
(-0.63148 -0.21063 0)
(-0.680741 -0.332726 0)
(-0.79302 -0.470539 0)
(-0.00340876 -0.871929 0)
(-0.0161887 -0.90035 0)
(-0.0335813 -0.919982 0)
(-0.0566242 -0.951514 0)
(-0.0900437 -0.993227 0)
(-0.139226 -1.04391 0)
(-0.209332 -1.10741 0)
(-0.318554 -1.19774 0)
(-0.493307 -1.30751 0)
(-0.719605 -1.37551 0)
(-0.957697 -1.33658 0)
(-1.17438 -1.16026 0)
(-1.32221 -0.84105 0)
(-1.3749 -0.440172 0)
(-1.3337 -0.0964576 0)
(-1.19546 0.0819253 0)
(-0.991889 0.0738129 0)
(-0.827604 -0.019787 0)
(-0.75737 -0.0516365 0)
(-0.721199 -0.113392 0)
(-0.726466 -0.183087 0)
(-0.778137 -0.252382 0)
(-0.884465 -0.322427 0)
(-0.00893943 -0.85636 0)
(-0.0305674 -0.879593 0)
(-0.0561328 -0.894765 0)
(-0.0879142 -0.91771 0)
(-0.129196 -0.946938 0)
(-0.184052 -0.979561 0)
(-0.255529 -1.014 0)
(-0.355509 -1.05822 0)
(-0.508026 -1.11384 0)
(-0.714935 -1.14568 0)
(-0.941784 -1.10125 0)
(-1.14257 -0.950744 0)
(-1.27352 -0.712743 0)
(-1.30138 -0.456213 0)
(-1.22334 -0.251528 0)
(-1.07349 -0.140781 0)
(-0.922822 -0.116708 0)
(-0.834001 -0.10824 0)
(-0.78897 -0.0975287 0)
(-0.764308 -0.124434 0)
(-0.775491 -0.155224 0)
(-0.822502 -0.182436 0)
(-0.908653 -0.198152 0)
(-0.0126184 -0.832639 0)
(-0.0407841 -0.851712 0)
(-0.0721981 -0.862404 0)
(-0.109176 -0.877915 0)
(-0.154134 -0.896703 0)
(-0.20984 -0.915952 0)
(-0.27709 -0.931783 0)
(-0.360442 -0.944975 0)
(-0.47527 -0.958498 0)
(-0.628887 -0.959982 0)
(-0.799679 -0.921338 0)
(-0.949249 -0.823305 0)
(-1.04308 -0.672055 0)
(-1.06178 -0.499823 0)
(-1.01108 -0.352924 0)
(-0.926674 -0.258154 0)
(-0.855657 -0.200636 0)
(-0.813883 -0.153905 0)
(-0.785184 -0.128584 0)
(-0.772499 -0.128216 0)
(-0.787243 -0.128607 0)
(-0.827302 -0.125166 0)
(-0.892706 -0.10595 0)
(-0.0150077 -0.803 0)
(-0.0475131 -0.819163 0)
(-0.0826239 -0.825808 0)
(-0.122304 -0.835222 0)
(-0.1683 -0.845797 0)
(-0.222453 -0.855418 0)
(-0.284901 -0.860543 0)
(-0.355655 -0.858499 0)
(-0.439797 -0.849531 0)
(-0.542948 -0.831642 0)
(-0.6576 -0.793413 0)
(-0.762127 -0.720635 0)
(-0.834047 -0.614322 0)
(-0.861469 -0.494082 0)
(-0.850536 -0.384064 0)
(-0.823254 -0.297656 0)
(-0.79803 -0.231011 0)
(-0.777084 -0.178829 0)
(-0.760406 -0.145759 0)
(-0.757182 -0.125577 0)
(-0.772248 -0.105525 0)
(-0.804056 -0.0808033 0)
(-0.850988 -0.0405355 0)
(-0.016435 -0.769844 0)
(-0.0514642 -0.783667 0)
(-0.0885401 -0.787063 0)
(-0.129165 -0.791703 0)
(-0.174603 -0.796035 0)
(-0.226058 -0.798485 0)
(-0.283795 -0.796698 0)
(-0.34696 -0.78797 0)
(-0.4155 -0.770125 0)
(-0.490837 -0.74155 0)
(-0.57122 -0.699388 0)
(-0.646946 -0.639208 0)
(-0.704746 -0.559977 0)
(-0.737448 -0.469584 0)
(-0.748426 -0.381984 0)
(-0.747228 -0.306357 0)
(-0.740461 -0.243113 0)
(-0.730874 -0.191771 0)
(-0.724105 -0.152169 0)
(-0.726726 -0.118955 0)
(-0.740114 -0.0859888 0)
(-0.763825 -0.0480452 0)
(-0.795511 0.0032402 0)
(-0.0171453 -0.734794 0)
(-0.0532523 -0.746775 0)
(-0.0909232 -0.74766 0)
(-0.131268 -0.748681 0)
(-0.175172 -0.748431 0)
(-0.223374 -0.745636 0)
(-0.27612 -0.738685 0)
(-0.333014 -0.725759 0)
(-0.393084 -0.704763 0)
(-0.454999 -0.673932 0)
(-0.516867 -0.632369 0)
(-0.574814 -0.579185 0)
(-0.622656 -0.514401 0)
(-0.655407 -0.44213 0)
(-0.673339 -0.370159 0)
(-0.680926 -0.304569 0)
(-0.682292 -0.246574 0)
(-0.680844 -0.19583 0)
(-0.681212 -0.151706 0)
(-0.686612 -0.110988 0)
(-0.697718 -0.0702933 0)
(-0.714592 -0.0251751 0)
(-0.734687 0.0307059 0)
(-0.0172835 -0.699145 0)
(-0.0533889 -0.709647 0)
(-0.0906321 -0.708678 0)
(-0.129847 -0.707029 0)
(-0.171615 -0.703516 0)
(-0.216367 -0.697105 0)
(-0.264125 -0.686575 0)
(-0.314597 -0.670749 0)
(-0.3671 -0.648404 0)
(-0.420121 -0.618126 0)
(-0.471413 -0.579004 0)
(-0.518448 -0.531249 0)
(-0.558331 -0.475981 0)
(-0.588439 -0.415711 0)
(-0.608249 -0.35475 0)
(-0.619829 -0.296907 0)
(-0.626326 -0.24323 0)
(-0.630659 -0.193517 0)
(-0.635147 -0.147377 0)
(-0.641307 -0.103192 0)
(-0.650267 -0.0585807 0)
(-0.661749 -0.0102561 0)
(-0.67335 0.0464157 0)
(-0.0169874 -0.663858 0)
(-0.0523181 -0.67317 0)
(-0.0884141 -0.670877 0)
(-0.125938 -0.667321 0)
(-0.165227 -0.661546 0)
(-0.206521 -0.652768 0)
(-0.249694 -0.640092 0)
(-0.294354 -0.622621 0)
(-0.33995 -0.599518 0)
(-0.385493 -0.570007 0)
(-0.429242 -0.533651 0)
(-0.469127 -0.490744 0)
(-0.503309 -0.442409 0)
(-0.530489 -0.390524 0)
(-0.550466 -0.337515 0)
(-0.564369 -0.285507 0)
(-0.574048 -0.235504 0)
(-0.581393 -0.187572 0)
(-0.587794 -0.141226 0)
(-0.594031 -0.0958449 0)
(-0.60094 -0.0499925 0)
(-0.608322 -0.00103243 0)
(-0.614186 0.0541403 0)
(-0.0163846 -0.629591 0)
(-0.0503925 -0.637956 0)
(-0.0848625 -0.634746 0)
(-0.120338 -0.62988 0)
(-0.15699 -0.622597 0)
(-0.194926 -0.612315 0)
(-0.233998 -0.598399 0)
(-0.273836 -0.580217 0)
(-0.313881 -0.557188 0)
(-0.353287 -0.528845 0)
(-0.390862 -0.495072 0)
(-0.425229 -0.456271 0)
(-0.455148 -0.413284 0)
(-0.479846 -0.367338 0)
(-0.499251 -0.319963 0)
(-0.514002 -0.272493 0)
(-0.525179 -0.22569 0)
(-0.533782 -0.179792 0)
(-0.540674 -0.134559 0)
(-0.546694 -0.0895531 0)
(-0.552146 -0.0438102 0)
(-0.556517 0.00410804 0)
(-0.558479 0.0566221 0)
(-0.0155822 -0.5968 0)
(-0.0478809 -0.604432 0)
(-0.0804215 -0.600608 0)
(-0.113633 -0.594884 0)
(-0.147595 -0.586644 0)
(-0.182319 -0.575473 0)
(-0.217643 -0.560915 0)
(-0.253237 -0.542551 0)
(-0.288624 -0.520034 0)
(-0.323105 -0.493097 0)
(-0.355782 -0.461688 0)
(-0.385748 -0.426145 0)
(-0.412246 -0.387189 0)
(-0.434761 -0.345767 0)
(-0.453163 -0.302842 0)
(-0.467763 -0.259201 0)
(-0.479208 -0.215382 0)
(-0.488181 -0.171641 0)
(-0.495168 -0.128031 0)
(-0.500472 -0.0843017 0)
(-0.504597 -0.0398441 0)
(-0.507074 0.00636259 0)
(-0.506566 0.0557749 0)
(-0.0146594 -0.565808 0)
(-0.0449856 -0.572885 0)
(-0.0754164 -0.568671 0)
(-0.106255 -0.562421 0)
(-0.137538 -0.553622 0)
(-0.169214 -0.541999 0)
(-0.201116 -0.527236 0)
(-0.232949 -0.50905 0)
(-0.264321 -0.487214 0)
(-0.294709 -0.461592 0)
(-0.323452 -0.432244 0)
(-0.349867 -0.399481 0)
(-0.373412 -0.363822 0)
(-0.393776 -0.32591 0)
(-0.410883 -0.28642 0)
(-0.424867 -0.245943 0)
(-0.436051 -0.204903 0)
(-0.444799 -0.163509 0)
(-0.451405 -0.121845 0)
(-0.456255 -0.079819 0)
(-0.459376 -0.0372458 0)
(-0.460334 0.00677247 0)
(-0.458391 0.0529665 0)
(-0.0136666 -0.536821 0)
(-0.0418506 -0.543477 0)
(-0.0700713 -0.539038 0)
(-0.0985046 -0.532497 0)
(-0.12716 -0.523424 0)
(-0.155957 -0.511646 0)
(-0.184733 -0.496945 0)
(-0.21324 -0.479151 0)
(-0.241143 -0.458137 0)
(-0.268023 -0.433851 0)
(-0.293394 -0.406359 0)
(-0.316784 -0.375904 0)
(-0.337802 -0.342903 0)
(-0.356185 -0.307862 0)
(-0.371856 -0.271267 0)
(-0.384916 -0.233524 0)
(-0.39552 -0.194947 0)
(-0.403826 -0.155753 0)
(-0.409964 -0.116116 0)
(-0.414108 -0.0760931 0)
(-0.416354 -0.0354844 0)
(-0.416448 0.00608344 0)
(-0.41374 0.0491329 0)
(-0.0126331 -0.509982 0)
(-0.0385817 -0.516302 0)
(-0.0645438 -0.511757 0)
(-0.0905873 -0.505087 0)
(-0.11669 -0.495937 0)
(-0.142771 -0.484202 0)
(-0.168666 -0.469743 0)
(-0.194167 -0.452459 0)
(-0.219 -0.432282 0)
(-0.242837 -0.409213 0)
(-0.265313 -0.383347 0)
(-0.28607 -0.354892 0)
(-0.304819 -0.324154 0)
(-0.321357 -0.291511 0)
(-0.335592 -0.257362 0)
(-0.34755 -0.222033 0)
(-0.357309 -0.185728 0)
(-0.364942 -0.148627 0)
(-0.370543 -0.110951 0)
(-0.374228 -0.0728962 0)
(-0.375906 -0.0343904 0)
(-0.375393 0.00474489 0)
(-0.372321 0.0448689 0)
(-0.0115763 -0.485358 0)
(-0.0352572 -0.491389 0)
(-0.0589481 -0.486824 0)
(-0.0826436 -0.480133 0)
(-0.106282 -0.471038 0)
(-0.129793 -0.459474 0)
(-0.15302 -0.445362 0)
(-0.175788 -0.428647 0)
(-0.197868 -0.409308 0)
(-0.219 -0.387376 0)
(-0.238905 -0.362946 0)
(-0.257316 -0.336198 0)
(-0.274004 -0.307379 0)
(-0.288807 -0.276782 0)
(-0.301636 -0.244715 0)
(-0.312474 -0.211455 0)
(-0.321333 -0.177205 0)
(-0.328258 -0.142154 0)
(-0.333326 -0.106505 0)
(-0.336482 -0.0704154 0)
(-0.337714 -0.0338846 0)
(-0.336933 0.00303772 0)
(-0.333782 0.0405458 0)
(-0.01051 -0.462962 0)
(-0.0319357 -0.468728 0)
(-0.0533693 -0.4642 0)
(-0.0747691 -0.457561 0)
(-0.0960326 -0.448606 0)
(-0.117107 -0.437293 0)
(-0.137843 -0.423584 0)
(-0.158093 -0.407458 0)
(-0.177668 -0.388922 0)
(-0.196361 -0.368024 0)
(-0.213954 -0.344866 0)
(-0.23024 -0.319601 0)
(-0.24504 -0.292435 0)
(-0.25822 -0.263609 0)
(-0.26969 -0.233376 0)
(-0.279404 -0.201967 0)
(-0.287371 -0.169563 0)
(-0.293613 -0.136344 0)
(-0.298107 -0.102504 0)
(-0.300794 -0.0682085 0)
(-0.301708 -0.0336553 0)
(-0.300796 0.00121124 0)
(-0.297782 0.0364051 0)
(-0.00944719 -0.442761 0)
(-0.0286589 -0.448285 0)
(-0.0478686 -0.44383 0)
(-0.0670282 -0.437289 0)
(-0.0860044 -0.428523 0)
(-0.104758 -0.417504 0)
(-0.123152 -0.404223 0)
(-0.141059 -0.388679 0)
(-0.158325 -0.370899 0)
(-0.174783 -0.350942 0)
(-0.190261 -0.328907 0)
(-0.204596 -0.304931 0)
(-0.217645 -0.279192 0)
(-0.229296 -0.251893 0)
(-0.23947 -0.223251 0)
(-0.248111 -0.193475 0)
(-0.25519 -0.162738 0)
(-0.260708 -0.131179 0)
(-0.264648 -0.0989756 0)
(-0.267008 -0.0663742 0)
(-0.26776 -0.0335683 0)
(-0.266816 -0.00058367 0)
(-0.264025 0.0325873 0)
(-0.0083986 -0.424728 0)
(-0.0254502 -0.430039 0)
(-0.0424817 -0.425674 0)
(-0.0594572 -0.419256 0)
(-0.0762282 -0.410701 0)
(-0.092762 -0.399992 0)
(-0.108938 -0.387134 0)
(-0.124646 -0.372144 0)
(-0.13976 -0.35506 0)
(-0.154144 -0.335948 0)
(-0.167663 -0.314903 0)
(-0.180186 -0.292051 0)
(-0.191596 -0.267546 0)
(-0.201802 -0.241568 0)
(-0.210736 -0.214307 0)
(-0.218345 -0.185953 0)
(-0.22459 -0.156672 0)
(-0.229449 -0.126602 0)
(-0.232899 -0.0959089 0)
(-0.234923 -0.064848 0)
(-0.235551 -0.0336186 0)
(-0.234699 -0.00226647 0)
(-0.232211 0.0291651 0)
(-0.00736624 -0.408836 0)
(-0.0223111 -0.413971 0)
(-0.0372173 -0.409704 0)
(-0.0520643 -0.403418 0)
(-0.0667068 -0.395079 0)
(-0.0811104 -0.384673 0)
(-0.0951729 -0.372217 0)
(-0.1088 -0.357737 0)
(-0.121889 -0.34128 0)
(-0.13433 -0.322915 0)
(-0.146014 -0.302732 0)
(-0.156837 -0.28085 0)
(-0.166706 -0.257408 0)
(-0.175544 -0.232566 0)
(-0.183292 -0.206496 0)
(-0.189906 -0.179377 0)
(-0.195347 -0.151377 0)
(-0.199582 -0.122624 0)
(-0.20259 -0.0932533 0)
(-0.204377 -0.0635063 0)
(-0.204934 -0.0336538 0)
(-0.204193 -0.00374466 0)
(-0.202063 0.0261867 0)
(-0.00633802 -0.394989 0)
(-0.0192219 -0.399981 0)
(-0.0320663 -0.395816 0)
(-0.0448391 -0.389669 0)
(-0.0574257 -0.381545 0)
(-0.069779 -0.371433 0)
(-0.0818173 -0.359354 0)
(-0.0934608 -0.345341 0)
(-0.104626 -0.329444 0)
(-0.115227 -0.311732 0)
(-0.125176 -0.292295 0)
(-0.134392 -0.271243 0)
(-0.142799 -0.248706 0)
(-0.150334 -0.224829 0)
(-0.156949 -0.19977 0)
(-0.162607 -0.173699 0)
(-0.16728 -0.146783 0)
(-0.170933 -0.119162 0)
(-0.173538 -0.0909559 0)
(-0.17509 -0.0623598 0)
(-0.175625 -0.0336439 0)
(-0.175082 -0.00495922 0)
(-0.173336 0.0236795 0)
(-0.00528329 -0.383107 0)
(-0.0161365 -0.387954 0)
(-0.0270024 -0.383887 0)
(-0.0377552 -0.377877 0)
(-0.0483553 -0.36996 0)
(-0.0587331 -0.360125 0)
(-0.0688284 -0.348394 0)
(-0.0785734 -0.334804 0)
(-0.0879014 -0.319405 0)
(-0.0967445 -0.302265 0)
(-0.105036 -0.283471 0)
(-0.112713 -0.263128 0)
(-0.119719 -0.241358 0)
(-0.126005 -0.218296 0)
(-0.131531 -0.194088 0)
(-0.136267 -0.168892 0)
(-0.140195 -0.142875 0)
(-0.143293 -0.116186 0)
(-0.145539 -0.088946 0)
(-0.14691 -0.0613093 0)
(-0.147426 -0.0335655 0)
(-0.147109 -0.00590646 0)
(-0.145794 0.0216561 0)
(-0.00416364 -0.373334 0)
(-0.0129831 -0.377931 0)
(-0.0219562 -0.373943 0)
(-0.0307329 -0.368057 0)
(-0.0394012 -0.360316 0)
(-0.0478689 -0.350716 0)
(-0.0560972 -0.339282 0)
(-0.0640289 -0.32605 0)
(-0.0716089 -0.311072 0)
(-0.0787812 -0.294415 0)
(-0.0854927 -0.276161 0)
(-0.091696 -0.25641 0)
(-0.0973506 -0.235277 0)
(-0.102423 -0.212889 0)
(-0.106886 -0.189384 0)
(-0.110723 -0.164909 0)
(-0.113921 -0.139622 0)
(-0.116474 -0.113683 0)
(-0.118368 -0.0872224 0)
(-0.119595 -0.0603611 0)
(-0.120154 -0.0333638 0)
(-0.12007 -0.00653484 0)
(-0.119193 0.0201432 0)
(-0.00298152 -0.365892 0)
(-0.00973183 -0.369971 0)
(-0.0168522 -0.366057 0)
(-0.0236691 -0.360285 0)
(-0.0304212 -0.352688 0)
(-0.0370082 -0.343276 0)
(-0.043413 -0.332074 0)
(-0.0495927 -0.319124 0)
(-0.0555027 -0.304477 0)
(-0.0610957 -0.288201 0)
(-0.0663247 -0.270374 0)
(-0.0711478 -0.251092 0)
(-0.0755301 -0.23046 0)
(-0.0794463 -0.208599 0)
(-0.082881 -0.18564 0)
(-0.0858296 -0.161724 0)
(-0.0882969 -0.137 0)
(-0.0902943 -0.111626 0)
(-0.0918369 -0.0857462 0)
(-0.0929315 -0.0594703 0)
(-0.0935619 -0.033011 0)
(-0.0937521 -0.00677865 0)
(-0.0933523 0.0191828 0)
(-0.00182505 -0.361175 0)