/*--------------------------------*- C++ -*----------------------------------*\
| =========                 |                                                 |
| \\      /  F ield         | OpenFOAM: The Open Source CFD Toolbox           |
|  \\    /   O peration     | Version:  5.x                                   |
|   \\  /    A nd           | Web:      www.OpenFOAM.org                      |
|    \\/     M anipulation  |                                                 |
\*---------------------------------------------------------------------------*/
FoamFile
{
    version     2.0;
    format      ascii;
    class       surfaceScalarField;
    location    "0.4";
    object      alphaPhi10;
}
// * * * * * * * * * * * * * * * * * * * * * * * * * * * * * * * * * * * * * //

dimensions      [0 3 -1 0 0 0 0];

internalField   nonuniform List<scalar> 
4432
(
-3.24922e-06
3.24922e-06
-2.35807e-06
-8.91152e-07
2.28462e-06
-4.64269e-06
8.67511e-06
-6.39049e-06
1.51976e-05
-6.52252e-06
2.08861e-05
-5.68845e-06
2.54127e-05
-4.52661e-06
2.88306e-05
-3.41793e-06
3.13419e-05
-2.51131e-06
3.31622e-05
-1.82025e-06
3.44532e-05
-1.29107e-06
3.52899e-05
-8.36624e-07
3.56306e-05
-3.40761e-07
3.52389e-05
3.91707e-07
3.36392e-05
1.59975e-06
3.02058e-05
3.43338e-06
2.40791e-05
6.12667e-06
1.46756e-05
9.40347e-06
3.3584e-06
1.13172e-05
-5.37073e-06
9.554e-06
-1.16202e-05
7.80261e-06
-1.61966e-05
9.4766e-07
-1.61966e-05
-3.31181e-06
6.56104e-06
-2.12078e-06
-2.08219e-06
2.59362e-06
-9.35709e-06
8.98826e-06
-1.27851e-05
1.546e-05
-1.29942e-05
2.10789e-05
-1.13074e-05
2.55458e-05
-8.99355e-06
2.89333e-05
-6.80537e-06
3.14529e-05
-5.03092e-06
3.33176e-05
-3.68495e-06
3.46795e-05
-2.65296e-06
3.56155e-05
-1.77265e-06
3.61584e-05
-8.83643e-07
3.6361e-05
1.89098e-07
3.6339e-05
1.62172e-06
3.59384e-05
3.83397e-06
3.45496e-05
7.51553e-06
3.04806e-05
1.34724e-05
2.12556e-05
2.05423e-05
6.19831e-06
2.47484e-05
-6.53225e-06
2.23534e-05
-9.01428e-06
2.6584e-06
-2.52109e-05
-3.00035e-06
9.56138e-06
-1.68403e-06
-3.39852e-06
3.10346e-06
-1.41446e-05
9.44108e-06
-1.91228e-05
1.57531e-05
-1.93062e-05
2.11743e-05
-1.67287e-05
2.54654e-05
-1.32846e-05
2.87377e-05
-1.00777e-05
3.12168e-05
-7.51003e-06
3.31088e-05
-5.57692e-06
3.4549e-05
-4.09321e-06
3.55951e-05
-2.81875e-06
3.62297e-05
-1.51827e-06
3.64028e-05
1.59738e-08
3.60363e-05
1.98826e-06
3.52074e-05
4.66286e-06
3.4254e-05
8.46889e-06
3.33958e-05
1.43306e-05
3.08239e-05
2.31142e-05
2.32379e-05
3.23344e-05
1.2001e-05
3.36125e-05
3.4573e-06
1.12749e-05
-2.17531e-05
-2.5911e-06
1.21525e-05
-1.02165e-06
-4.96797e-06
3.80914e-06
-1.89754e-05
1.00327e-05
-2.53463e-05
1.6107e-05
-2.53805e-05
2.12494e-05
-2.18711e-05
2.53059e-05
-1.73411e-05
2.84405e-05
-1.32122e-05
3.08903e-05
-9.95982e-06
3.28444e-05
-7.53104e-06
3.44096e-05
-5.65845e-06
3.56152e-05
-4.02437e-06
3.64319e-05
-2.33493e-06
3.67903e-05
-3.42463e-07
3.66033e-05
2.1753e-06
3.58212e-05
5.44495e-06
3.45644e-05
9.72573e-06
3.35525e-05
1.53424e-05
3.34597e-05
2.3207e-05
3.24019e-05
3.33922e-05
2.67079e-05
3.93065e-05
1.45527e-05
2.34302e-05
-7.19015e-06
-2.05862e-06
1.42111e-05
-9.53826e-08
-6.93121e-06
4.65927e-06
-2.373e-05
1.07034e-05
-3.13904e-05
1.64821e-05
-3.11592e-05
2.12921e-05
-2.66811e-05
2.50789e-05
-2.11278e-05
2.80694e-05
-1.62027e-05
3.05093e-05
-1.23998e-05
3.25603e-05
-9.58204e-06
3.42901e-05
-7.38822e-06
3.56936e-05
-5.42789e-06
3.67199e-05
-3.36124e-06
3.72964e-05
-9.18933e-07
3.73551e-05
2.11664e-06
3.68617e-05
5.93835e-06
3.58327e-05
1.07547e-05
3.45198e-05
1.66552e-05
3.40039e-05
2.3723e-05
3.47249e-05
3.26713e-05
3.26422e-05
4.13892e-05
2.08089e-05
3.52635e-05
1.35815e-05
-1.39322e-06
1.56043e-05
7.7729e-07
-9.10172e-06
5.5463e-06
-2.8499e-05
1.13504e-05
-3.71946e-05
1.68081e-05
-3.66169e-05
2.12841e-05
-3.11571e-05
2.48158e-05
-2.46595e-05
2.76928e-05
-1.90798e-05
3.01633e-05
-1.48702e-05
3.23523e-05
-1.1771e-05
3.4282e-05
-9.31794e-06
3.59093e-05
-7.0552e-06
3.71596e-05
-4.61158e-06
3.79533e-05
-1.71256e-06
3.82326e-05
1.83727e-06
3.79906e-05
6.18042e-06
3.72635e-05
1.14818e-05
3.61138e-05
1.78049e-05
3.49096e-05
2.49272e-05
3.4748e-05
3.28329e-05
3.36467e-05
4.24905e-05
2.34842e-05
4.5426e-05
3.70617e-05
-6.01252e-07
1.62056e-05
1.8402e-06
-1.15432e-05
6.4307e-06
-3.30895e-05
1.18877e-05
-4.26516e-05
1.69922e-05
-4.17214e-05
2.11573e-05
-3.53222e-05
2.44869e-05
-2.79891e-05
2.73168e-05
-2.19097e-05
2.98826e-05
-1.7436e-05
3.22634e-05
-1.41519e-05
3.44338e-05
-1.14884e-05
3.63149e-05
-8.93624e-06
3.78113e-05
-6.10795e-06
3.88357e-05
-2.73701e-06
3.93226e-05
1.35033e-06
3.92778e-05
6.22529e-06
3.87411e-05
1.20185e-05
3.78183e-05
1.87277e-05
3.64756e-05
2.62699e-05
3.52059e-05
3.41026e-05
3.35907e-05
4.41056e-05
2.54305e-05
5.35862e-05
6.24923e-05
3.68973e-07
1.58366e-05
3.1903e-06
-1.43645e-05
7.57002e-06
-3.74692e-05
1.25364e-05
-4.76179e-05
1.71607e-05
-4.63456e-05
2.09734e-05
-3.91349e-05
2.41216e-05
-3.11373e-05
2.6945e-05
-2.47332e-05
2.96397e-05
-2.01306e-05
3.223e-05
-1.67421e-05
3.46462e-05
-1.39046e-05
3.67841e-05
-1.10741e-05
3.85364e-05
-7.86029e-06
3.98172e-05
-4.01782e-06
4.05819e-05
5.85673e-07
4.07828e-05
6.0244e-06
4.04247e-05
1.23766e-05
3.96292e-05
1.95232e-05
3.84122e-05
2.74869e-05
3.66935e-05
3.58213e-05
3.42559e-05
4.65432e-05
2.68821e-05
6.096e-05
8.93743e-05
3.75969e-16
-3.63128e-16
1.69529e-13
-1.69153e-13
2.59055e-14
9.95e-14
3.67223e-16
1.11908e-14
5.11895e-18
2.56171e-16
4.22598e-20
1.41001e-18
-2.00041e-26
1.46436e-20
-1.75107e-26
2.49657e-25
-3.69374e-27
7.85134e-27
-6.16714e-27
1.22033e-27
-2.40546e-26
1.46726e-27
-3.46235e-26
1.64047e-27
-3.36081e-26
-4.82049e-28
-2.8576e-26
-6.33126e-27
-3.55313e-26
-1.26967e-26
-6.7548e-26
-3.00411e-26
-7.7231e-26
-8.34464e-26
-1.77841e-27
-1.32343e-25
-5.19486e-27
2.84648e-14
-2.88279e-14
5.34993e-12
-5.52448e-12
9.65838e-13
3.41873e-12
3.10725e-14
6.45942e-13
1.64935e-16
3.08437e-14
5.19152e-19
1.62372e-16
-1.08343e-23
5.29906e-19
-1.26885e-24
2.08306e-23
-8.21553e-25
1.71007e-24
-1.30981e-24
7.68349e-25
-4.0075e-24
9.22273e-25
-7.35733e-24
8.39038e-25
-8.50662e-24
-5.64493e-25
-6.72559e-24
-3.33828e-24
-6.1063e-24
-4.84972e-24
-8.49944e-24
-7.91453e-24
-7.66098e-24
-1.71118e-23
-2.31872e-25
-2.36934e-23
-1.2403e-24
1.1066e-12
-1.13543e-12
8.67785e-11
-9.22965e-11
2.11659e-11
6.38067e-11
7.62011e-13
1.55427e-11
6.52714e-15
7.79165e-13
1.36027e-17
6.64386e-15
-2.13754e-21
1.45649e-17
-3.75736e-22
3.15884e-21
-2.63743e-22
7.74498e-22
-2.40948e-22
3.27617e-22
-3.3927e-22
1.46536e-22
-7.80885e-22
9.82325e-23
-1.11427e-21
-9.88609e-23
-8.12878e-22
-7.72673e-22
-5.87986e-22
-9.67248e-22
-6.2232e-22
-9.42341e-22
-4.55914e-22
-1.53192e-21
-1.91024e-23
-1.8626e-21
-1.34761e-22
2.56291e-11
-2.67645e-11
1.2514e-09
1.31083e-09
4.05487e-10
-4.24868e-11
7.3254e-12
3.17476e-10
7.06108e-14
7.90157e-12
2.27166e-16
7.66815e-14
-2.9375e-19
2.47546e-16
-3.21975e-20
1.16498e-19
-3.02221e-20
1.02613e-19
-2.02902e-20
4.43737e-20
-2.21175e-20
1.51901e-20
-4.99717e-20
5.82724e-21
-7.81096e-20
-8.99898e-21
-5.54301e-20
-6.72523e-20
-3.56708e-20
-7.46185e-20
-2.90758e-20
-7.10928e-20
-1.87634e-20
-8.67509e-20
-1.04478e-21
-9.11503e-20
-9.56746e-21
1.61332e-10
-9.87245e-10
4.98838e-09
6.02131e-09
4.23579e-09
2.59562e-10
6.20274e-11
2.19435e-09
6.96232e-13
6.74807e-11
1.79409e-15
7.5475e-13
-4.02458e-18
2.11011e-15
-3.72787e-19
3.23476e-19
-8.304e-19
1.73336e-18
-1.56406e-18
2.23494e-18
-9.31098e-19
1.39354e-18
-2.55153e-18
2.30143e-19
-2.47038e-18
-4.97402e-19
-1.47407e-18
-2.00519e-18
-1.3096e-18
-1.44008e-18
-9.51262e-19
-2.90634e-18
-5.77168e-19
-3.74435e-18
-4.22447e-20
-3.24699e-18
-5.64516e-19
3.42953e-10
-9.7368e-10
1.12889e-08
-3.89638e-09
5.67827e-09
1.20506e-09
5.76344e-11
4.07017e-09
5.1328e-13
1.21766e-10
-2.71188e-16
1.2508e-12
-2.23819e-17
1.87396e-15
-5.20365e-18
2.53594e-18
-3.46623e-17
3.97655e-17
-8.2362e-17
1.21761e-16
-1.51005e-17
3.61268e-17
-5.61393e-17
2.96172e-18
-3.61546e-17
-7.52798e-18
-1.69816e-17
-3.16151e-17
-2.79469e-17
-3.57202e-17
-2.18447e-17
-3.57966e-17
-1.25223e-17
-6.01585e-17
-1.21283e-18
-6.89927e-17
-2.15916e-17
1.19806e-09
2.73636e-08
3.27148e-08
-5.84529e-08
9.9939e-09
-1.70183e-08
5.60369e-11
6.74266e-09
3.62582e-13
1.73404e-10
-1.5338e-15
1.61338e-12
-1.25567e-17
2.10234e-16
-6.01198e-17
2.81606e-17
-1.41854e-15
5.80613e-16
-2.76746e-15
3.33675e-15
-6.2694e-17
1.73972e-15
-4.48969e-16
1.01303e-17
-1.83544e-16
-1.84185e-17
-1.69368e-16
-6.59202e-17
-5.88998e-16
-1.38089e-16
-3.75787e-16
-2.04651e-16
-1.86416e-16
-2.72542e-16
-2.13671e-17
-7.37279e-16
-1.51631e-16
2.84555e-08
-1.09188e-09
7.70423e-08
-1.75963e-07
1.04867e-08
-3.15638e-08
-2.07638e-11
8.57229e-09
-4.11565e-13
1.49536e-10
-1.31233e-16
1.20178e-12
-1.68733e-18
3.88819e-17
-2.24002e-17
7.06669e-18
-5.18028e-17
5.91809e-16
-1.93428e-16
3.43007e-15
-3.68896e-16
2.16422e-15
-1.35989e-15
4.971e-16
-9.87793e-16
7.83984e-17
-1.70613e-15
1.41131e-15
-1.44156e-14
1.42995e-14
-6.6751e-15
-7.36994e-15
-2.39658e-15
-6.35162e-15
-4.28435e-16
-5.06603e-15
-5.80066e-16
5.56593e-06
1.02707e-05
1.42173e-05
-2.30159e-05
2.35594e-05
-4.681e-05
3.17148e-05
-5.57706e-05
3.87812e-05
-5.34094e-05
4.51408e-05
-4.54929e-05
5.12191e-05
-3.72147e-05
5.73341e-05
-3.08476e-05
6.35308e-05
-2.63272e-05
6.96221e-05
-2.28333e-05
7.53185e-05
-1.9601e-05
8.03484e-05
-1.6104e-05
8.4516e-05
-1.20278e-05
8.77055e-05
-7.20729e-06
8.98981e-05
-1.60694e-06
9.11547e-05
4.76773e-06
9.13047e-05
1.22266e-05
9.04176e-05
2.04102e-05
8.87718e-05
2.91327e-05
8.63162e-05
3.82769e-05
8.39618e-05
4.88977e-05
8.5062e-05
5.98598e-05
7.89746e-05
9.54616e-05
1.39973e-05
-3.72664e-06
3.07604e-05
-3.97764e-05
4.03449e-05
-5.63747e-05
4.27673e-05
-5.81655e-05
4.40195e-05
-5.46373e-05
4.73818e-05
-4.88367e-05
5.29616e-05
-4.27818e-05
5.98165e-05
-3.76939e-05
6.71202e-05
-3.36253e-05
7.42762e-05
-2.99856e-05
8.07793e-05
-2.61017e-05
8.62532e-05
-2.15767e-05
9.05346e-05
-1.63087e-05
9.37424e-05
-1.0415e-05
9.60277e-05
-3.89224e-06
9.72447e-05
3.5507e-06
9.76645e-05
1.18069e-05
9.75001e-05
2.05746e-05
9.74294e-05
2.92034e-05
9.76632e-05
3.80431e-05
9.90741e-05
4.74868e-05
0.000103315
5.56191e-05
6.76946e-05
0.000114595
2.49895e-05
-2.87161e-05
4.66817e-05
-5.12639e-05
4.43413e-05
-2.60129e-05
3.96875e-05
-1.95905e-05
3.60176e-05
-1.99969e-05
3.61594e-05
-1.97091e-05
4.02904e-05
-1.84299e-05
4.71611e-05
-1.76016e-05
5.50253e-05
-1.69147e-05
6.31621e-05
-1.61245e-05
7.14309e-05
-1.49675e-05
7.98393e-05
-1.33571e-05
8.81952e-05
-1.11787e-05
9.58391e-05
-8.12299e-06
0.000101851
-3.75126e-06
0.000104467
2.5761e-06
0.000103352
1.29219e-05
0.000101564
2.23632e-05
0.000101666
2.91012e-05
0.000103116
3.65927e-05
0.000105291
4.53118e-05
0.000107531
5.33794e-05
6.12859e-05
0.00011394
2.19486e-05
-1.64197e-05
6.80772e-06
-5.40623e-07
3.55154e-06
-5.76565e-09
2.87844e-06
-2.09972e-11
2.45508e-06
-1.60237e-17
1.85044e-06
-2.0956e-16
1.80643e-06
-1.09755e-15
2.19725e-06
-2.29955e-15
2.93129e-06
-2.313e-14
3.9227e-06
-4.1092e-13
5.36205e-06
-1.24911e-12
7.66694e-06
-6.92026e-13
1.14844e-05
-9.89551e-12
1.786e-05
-2.40366e-10
2.82415e-05
-4.86254e-09
4.47913e-05
-8.43517e-08
7.18068e-05
1.69564e-07
0.000100144
4.7116e-06
0.00011232
1.82343e-05
0.00011492
3.39927e-05
0.000113551
4.6681e-05
0.000113378
5.35517e-05
5.90858e-05
0.000115578
5.4641e-07
-1.42524e-22
5.78664e-09
-6.71439e-21
2.09972e-11
-1.84117e-19
-5.82821e-20
-4.45585e-18
-1.02368e-18
-4.40856e-18
-8.73309e-18
-1.80353e-16
-3.37024e-17
-1.00001e-15
-3.9006e-16
-1.8607e-15
-8.3462e-15
-1.52503e-14
-3.21987e-14
-3.88546e-13
-3.5413e-14
-1.26896e-12
-2.39211e-13
-5.68204e-13
-6.20971e-12
-4.05321e-12
-1.76437e-10
-7.13591e-11
-3.46348e-09
-1.60355e-09
-7.07859e-08
-1.75917e-08
4.371e-07
-5.63177e-08
6.02191e-06
-1.69845e-08
2.51322e-05
8.98672e-08
5.92115e-05
6.64108e-07
9.89355e-05
5.84499e-06
0.000116578
3.09296e-05
5.17311e-05
0.000123932
-9.27273e-23
-4.97965e-23
-4.19689e-21
-2.61719e-21
-1.1419e-19
-7.46006e-20
-2.23339e-18
-2.35151e-18
-9.10044e-18
-4.07894e-17
-1.85459e-16
-8.14229e-16
-4.01477e-16
-3.1784e-15
-3.44351e-16
-4.22512e-15
-2.78245e-14
-1.80686e-14
-7.43995e-13
-1.06884e-12
-2.42374e-13
-7.54109e-12
8.44116e-13
-1.61062e-12
-1.97789e-12
-2.45218e-12
-5.59418e-11
-3.14461e-11
-1.00038e-08
-6.61358e-09
-2.5858e-09
-5.16602e-08
5.31563e-09
-8.05916e-08
1.40108e-08
-4.17935e-08
1.26147e-07
-3.83824e-08
8.24705e-07
-3.18467e-08
6.12133e-06
1.03274e-07
3.3742e-05
2.16165e-07
1.23772e-06
7.95817e-05
-4.1914e-23
-7.88253e-24
-1.54001e-21
-1.13116e-21
-3.41227e-20
-4.63379e-20
-2.9683e-18
-3.50154e-18
-1.72356e-16
-1.85011e-16
-1.65113e-15
-2.40974e-15
-2.31505e-15
-6.82486e-15
1.21984e-15
-7.32789e-15
9.45617e-15
-2.65697e-14
-4.20234e-12
-1.74949e-12
-2.73003e-12
-8.35167e-12
-1.23313e-12
-5.65181e-12
-7.7279e-12
-1.08458e-12
-4.50382e-11
-1.981e-12
-5.56321e-09
-1.47731e-08
6.05523e-09
-4.21102e-08
9.05687e-09
-1.06803e-07
3.7512e-08
-5.32181e-08
8.71156e-08
-7.24529e-08
1.12361e-07
-4.58808e-08
2.3032e-07
-3.9274e-09
4.73436e-07
-2.04485e-08
9.90693e-08
1.62784e-06
-5.85867e-24
-2.02386e-24
-6.52552e-22
-4.861e-22
-3.29455e-20
-3.30727e-20
-5.776e-18
-3.3428e-18
-3.18761e-16
-1.91612e-16
-2.46425e-15
-2.60646e-15
-2.81955e-15
-7.52812e-15
-1.12252e-16
-7.43894e-15
-1.5827e-14
-8.30191e-15
-3.87834e-12
-1.17696e-12
-3.74668e-12
-7.85271e-12
-1.55939e-12
-6.68842e-12
-3.4297e-12
-1.94678e-12
-5.35589e-12
-4.85836e-12
4.0569e-09
-5.0359e-09
1.81416e-09
-9.93557e-11
2.90457e-09
-4.72262e-08
1.43167e-08
-2.69172e-08
3.23917e-08
-2.61647e-08
5.26449e-08
-4.1822e-08
6.15641e-08
-1.03993e-08
3.70616e-08
3.04976e-09
9.8095e-09
1.26379e-07
-3.30139e-24
1.27752e-24
-3.62556e-22
-1.27598e-22
-1.59491e-20
-1.32327e-20
-4.41975e-18
-2.13493e-18
-2.67637e-16
-1.66175e-16
-2.18997e-15
-2.30903e-15
-2.36781e-15
-7.07617e-15
-9.85844e-16
-7.13365e-15
-3.68489e-15
-2.93727e-15
-1.74486e-12
-2.29371e-13
-2.43e-12
-4.98327e-12
9.13962e-14
-7.70625e-13
-8.13925e-13
-6.66358e-12
7.63823e-12
-7.88546e-11
4.33748e-11
-1.35558e-11
-5.58864e-11
-9.36508e-14
-2.18136e-09
-2.17491e-11
-1.64853e-09
-3.25532e-09
-5.43032e-10
-3.5053e-08
1.84727e-09
-5.24276e-08
3.91475e-09
-1.28041e-08
6.24582e-09
-5.16118e-10
3.41687e-09
1.16192e-08
-5.46754e-24
1.34924e-24
-1.11411e-22
-2.07964e-23
-4.9231e-21
-4.19792e-21
-2.29115e-18
-1.00597e-18
-1.40947e-16
-9.39567e-17
-1.32753e-15
-1.17794e-15
-1.55055e-15
-3.97668e-15
-4.24883e-16
-3.91386e-15
4.62513e-16
-1.71797e-15
-1.51901e-13
-1.16332e-15
2.99995e-14
-1.08897e-15
-8.00041e-13
-5.97675e-14
-3.98635e-12
-8.23091e-12
1.6561e-11
-2.5653e-12
9.31058e-14
-1.08936e-13
2.07802e-16
-4.89179e-16
-1.74305e-11
-4.31744e-12
-2.47723e-09
-7.93399e-10
-2.35066e-09
-2.43624e-08
-8.9655e-09
-3.99111e-08
-1.86227e-09
-2.51412e-08
3.3477e-10
-3.75561e-09
6.74579e-10
2.03367e-09
-6.09183e-25
7.09714e-25
-1.75176e-23
-3.88794e-24
-1.32469e-21
-1.06537e-21
-1.00741e-18
-3.26597e-19
-4.734e-17
-3.63581e-17
-5.08326e-16
-3.79235e-16
-4.83595e-16
-1.34684e-15
-2.63686e-16
-1.26365e-15
-1.07623e-16
-8.1373e-16
-8.41749e-17
-3.68014e-15
-1.89747e-15
-1.73134e-15
-1.80825e-13
-6.03651e-16
8.13271e-14
-5.65834e-12
1.27534e-13
-2.97156e-14
3.35268e-16
5.48747e-17
1.18994e-16
-1.00569e-16
-4.25267e-12
-6.45156e-14
-3.21227e-10
-8.1428e-12
-5.16776e-09
-2.26795e-09
-1.24187e-08
-1.99422e-08
-7.61883e-09
-1.73225e-08
-3.90264e-09
-8.53327e-09
-2.47868e-09
-2.02888e-09
-5.81172e-26
3.50642e-25
-2.64214e-25
-4.12477e-25
-2.51045e-22
-2.70123e-22
-3.18197e-19
-6.72685e-20
-1.13041e-17
-9.69758e-18
-1.25875e-16
-9.70021e-17
-1.13529e-16
-3.15381e-16
-6.21926e-17
-3.10219e-16
-2.53185e-16
-2.93063e-16
-4.73434e-17
-2.74109e-15
-1.74194e-19
-2.08438e-15
9.53752e-18
-7.86717e-16
2.96681e-14
-3.05009e-16
3.08296e-17
-7.83426e-17
-1.35905e-18
3.5151e-16
-6.65126e-16
5.63198e-16
-6.55324e-14
3.51706e-16
-8.2044e-12
-3.89273e-15
-2.27586e-09
-2.93553e-13
-2.91403e-09
-9.13646e-12
-1.08176e-08
-2.06671e-10
-1.24182e-08
-3.57501e-09
-2.58734e-09
-8.78291e-09
-4.42782e-27
2.04669e-25
-2.88819e-25
-1.21089e-25
-3.57127e-23
-9.75935e-23
-6.33847e-20
-1.04653e-20
-2.43367e-18
-1.89457e-18
-2.23841e-17
-1.96159e-17
-2.1388e-17
-5.72827e-17
-1.79148e-17
-5.79272e-17
-1.87662e-16
-7.25628e-17
-9.47002e-17
-9.04251e-16
-1.82204e-17
-9.41551e-16
-5.22712e-20
-7.05872e-16
-7.57395e-20
-3.03395e-16
1.46297e-17
-9.30481e-17
5.24035e-17
1.78665e-16
5.87949e-17
2.94843e-16
-8.2272e-17
2.19111e-16
-4.07196e-15
9.69556e-17
-2.9764e-13
1.46959e-17
-9.43403e-12
-6.22725e-17
-2.16105e-10
-2.23821e-16
-3.79111e-09
-3.64776e-15
-8.13183e-14
-5.15106e-09
-5.55567e-28
1.48327e-25
-2.83624e-25
1.6198e-25
-6.35056e-24
-4.37745e-23
-9.26383e-21
-1.36422e-21
-4.21276e-19
-2.79831e-19
-3.26368e-18
-2.91783e-18
-3.34363e-18
-8.52729e-18
-3.19502e-18
-9.84771e-18
-3.62181e-17
-1.39505e-17
-3.63523e-17
-3.07887e-17
-3.24036e-17
-1.1816e-16
-2.06642e-17
-2.50784e-16
-1.49409e-17
-2.43653e-16
1.90243e-17
-1.18339e-16
4.66486e-17
2.75644e-17
5.05193e-17
8.70942e-17
3.10949e-17
7.32517e-17
6.36107e-18
3.3938e-17
-1.50669e-18
-4.56703e-18
-8.40601e-18
-5.53732e-17
-1.36886e-16
-9.50749e-17
-3.73587e-15
-4.06939e-17
-9.50029e-17
-8.49555e-14
6.03466e-28
1.12983e-25
-9.24172e-25
3.5226e-25
-1.72482e-24
-1.64343e-23
-1.10304e-21
-1.59112e-22
-5.13797e-20
-3.15117e-20
-3.63389e-19
-3.25433e-19
-4.67317e-19
-9.72892e-19
-5.90178e-19
-1.61421e-18
-9.00888e-19
-3.26283e-18
-3.47397e-18
-8.7317e-18
-1.11274e-17
-3.61085e-17
-2.34365e-17
-7.17833e-17
-2.28117e-17
-1.01471e-16
4.36923e-18
-4.59798e-17
1.83013e-17
-9.24257e-18
2.05914e-17
8.3595e-18
1.26736e-17
1.0482e-17
-2.26333e-18
5.19605e-18
-2.42348e-17
-2.98503e-19
-6.06854e-17
-7.78221e-18
-5.48871e-17
-1.73079e-17
-6.17734e-17
-4.41707e-17
-8.02333e-17
-8.68556e-17
1.15851e-27
7.82274e-26
-2.62204e-25
3.25839e-25
-4.68757e-25
-3.8748e-24
-1.05918e-22
-1.87396e-23
-4.82541e-21
-2.62424e-21
-2.78592e-20
-2.69139e-20
-5.62935e-20
-9.09985e-20
-1.10868e-19
-2.77991e-19
-2.54685e-19
-8.45678e-19
-1.34618e-18
-1.97116e-18
-3.81953e-18
-5.67653e-18
-7.6377e-18
-8.29068e-18
-6.01287e-18
-7.38057e-18
-3.49859e-18
-5.20405e-18
2.03377e-18
-4.96393e-18
3.27483e-18
-1.43982e-18
2.0909e-18
-2.78433e-19
-1.70102e-19
-2.75193e-19
-7.62019e-19
-2.75868e-19
-6.67194e-18
-7.04026e-19
-2.98849e-17
-3.62491e-18
-1.13011e-16
-1.45449e-17
-4.23121e-17
-2.10044e-16
1.01493e-27
4.61162e-26
-4.83902e-26
2.24111e-25
-8.65294e-26
-4.54615e-25
-7.83795e-24
-2.26485e-24
-3.17248e-22
-1.53892e-22
-1.69978e-21
-1.59271e-21
-6.43326e-21
-9.11292e-21
-2.65261e-20
-5.50183e-20
-7.01055e-20
-2.16765e-19
-2.72042e-19
-5.14072e-19
-5.70023e-19
-9.18164e-19
-6.41678e-19
-9.8983e-19
-4.95415e-19
-8.66018e-19
-6.37692e-19
-5.15421e-19
-5.5191e-19
-1.82501e-19
-9.11991e-20
-3.8775e-20
-1.13174e-19
-5.35788e-21
-1.38108e-19
-7.30393e-21
-1.74789e-19
-1.9495e-20
-5.99599e-19
-1.51324e-19
-4.02155e-18
-9.6413e-19
-2.59135e-17
-4.91792e-18
-1.99268e-17
-9.18405e-17
6.46094e-28
2.23559e-26
-4.43918e-27
1.22356e-25
-8.27908e-27
1.99416e-26
-4.28513e-25
-2.08898e-25
-1.16581e-23
-5.85661e-24
-9.79486e-23
-7.34284e-23
-8.83598e-22
-1.16829e-21
-6.10765e-21
-1.06172e-20
-2.19248e-20
-4.74157e-20
-5.87736e-20
-1.20423e-19
-7.44803e-20
-1.82659e-19
-8.47833e-20
-1.84017e-19
-7.17106e-20
-1.5663e-19
-3.47519e-20
-9.05868e-20
-9.62669e-21
-3.01705e-20
-9.64008e-22
-5.29199e-21
-1.21462e-21
-7.25518e-22
-2.19677e-21
-8.10085e-22
-1.32541e-20
-3.89998e-21
-1.29544e-19
-3.50281e-20
-1.03884e-18
-2.53967e-19
-9.81363e-18
-1.78314e-18
-1.02514e-17
-4.03038e-17
3.07246e-28
8.61069e-27
3.39555e-28
5.21005e-26
-3.70819e-27
3.85415e-26
-1.46509e-26
1.27229e-28
-2.73455e-25
-1.13382e-25
-6.63459e-24
-4.13141e-24
-1.3531e-22
-1.48493e-22
-1.17722e-21
-1.58213e-21
-5.19805e-21
-7.91611e-21
-1.23722e-20
-2.13841e-20
-1.4408e-20
-3.42389e-20
-1.61039e-20
-3.46877e-20
-1.32406e-20
-2.92045e-20
-6.16029e-21
-1.64107e-20
-1.38439e-21
-4.99024e-21
-1.3383e-22
-6.92338e-22
-1.57698e-22
-9.42783e-23
-2.90604e-22
-1.28468e-22
-2.56552e-21
-7.88551e-22
-2.49203e-20
-7.60591e-21
-2.51463e-19
-6.64772e-20
-3.7923e-18
-7.02881e-19
-5.50936e-18
-1.91393e-17
9.41354e-29
2.51484e-27
5.92023e-28
1.63652e-26
3.83379e-30
2.16094e-26
-2.46527e-27
4.54102e-27
-5.80117e-27
-5.80362e-28
-5.75286e-25
-3.03656e-25
-1.64987e-23
-1.26446e-23
-1.70351e-22
-1.69541e-22
-8.10855e-22
-9.75433e-22
-2.16588e-21
-2.79888e-21
-2.60485e-21
-4.93712e-21
-2.89738e-21
-5.13878e-21
-2.32226e-21
-4.46936e-21
-9.95435e-22
-2.64858e-21
-1.73462e-22
-8.13891e-22
-1.60471e-23
-8.97427e-23
-1.89218e-23
-1.10132e-23
-4.53144e-23
-1.92516e-23
-4.33122e-22
-1.5084e-22
-4.35721e-21
-1.53778e-21
-6.28577e-20
-1.75368e-20
-1.53747e-18
-2.91356e-19
-3.00815e-18
-8.70701e-18
1.41158e-29
5.19157e-28
2.9692e-28
3.46893e-27
1.25393e-28
6.2269e-27
-8.12102e-30
2.01598e-27
-9.93459e-28
4.04976e-28
-3.57515e-26
-1.22786e-26
-1.38128e-24
-6.19691e-25
-1.78991e-23
-1.33562e-23
-9.08595e-23
-8.77399e-23
-2.77193e-22
-2.66001e-22
-3.51534e-22
-4.97761e-22
-3.92544e-22
-5.32927e-22
-3.32849e-22
-4.78179e-22
-1.47922e-22
-3.03522e-22
-2.08365e-23
-9.99622e-23
-1.6965e-24
-1.10513e-23
-2.0147e-24
-1.47283e-24
-6.47343e-24
-3.13164e-24
-6.43222e-23
-2.81186e-23
-7.03768e-22
-3.00019e-22
-1.57419e-20
-4.73485e-21
-6.17965e-19
-1.22651e-19
-1.65678e-18
-3.82838e-18
-3.88928e-31
6.76566e-29
7.55627e-29
4.33992e-28
5.04355e-29
8.3594e-28
1.38734e-29
2.64979e-28
-2.83005e-28
5.92929e-29
-1.0507e-27
-1.39364e-29
-8.04618e-26
-2.00215e-26
-1.3539e-24
-7.78039e-25
-7.37663e-24
-5.56736e-24
-2.40879e-23
-1.73895e-23
-3.21636e-23
-3.30809e-23
-3.60045e-23
-3.6484e-23
-3.2149e-23
-3.35418e-23
-1.53902e-23
-2.25845e-23
-2.1965e-24
-8.03477e-24
-1.98329e-25
-9.61035e-25
-2.37156e-25
-1.97385e-25
-9.29833e-25
-5.16126e-25
-8.89324e-24
-5.2544e-24
-1.08057e-22
-5.98574e-23
-3.81398e-21
-1.29107e-21
-2.39588e-19
-5.15031e-20
-9.04746e-19
-1.58582e-18
-2.42388e-31
4.414e-30
8.76924e-30
2.72583e-29
5.93282e-30
5.44714e-29
1.81485e-30
1.68172e-29
-5.45917e-31
3.65479e-30
-1.55714e-29
-3.62032e-31
-3.53648e-27
-6.17871e-28
-7.25541e-26
-2.96039e-26
-4.14407e-25
-2.24387e-25
-1.35035e-24
-7.25999e-25
-1.89228e-24
-1.38843e-24
-2.1108e-24
-1.60368e-24
-1.95627e-24
-1.49469e-24
-1.00454e-24
-1.04217e-24
-1.48864e-25
-3.90362e-25
-2.15828e-26
-5.03545e-26
-2.60977e-26
-1.99428e-26
-1.25541e-25
-7.98794e-26
-1.20635e-24
-1.02651e-24
-1.59408e-23
-1.29691e-23
-8.64738e-22
-3.47176e-22
-8.54961e-20
-2.12425e-20
-4.73096e-19
-5.80131e-19
-2.85331e-32
2.48689e-48
4.67751e-31
-9.20157e-45
3.28291e-31
-4.26699e-41
9.74755e-32
-9.01296e-38
-1.2447e-32
-9.81615e-35
-4.37445e-31
-1.49979e-33
-1.06734e-28
-2.27767e-30
-2.40124e-27
-4.50952e-28
-1.45182e-26
-4.42894e-27
-4.60627e-26
-1.61188e-26
-6.94665e-26
-3.24678e-26
-7.66839e-26
-4.07515e-26
-7.18404e-26
-3.79068e-26
-3.81169e-26
-2.5966e-26
-5.4073e-27
-9.27609e-27
-1.64899e-27
-1.35315e-27
-2.0894e-27
-1.46646e-27
-1.55003e-26
-1.30042e-26
-1.67217e-25
-2.20724e-25
-2.25332e-24
-3.15941e-24
-1.73775e-22
-8.98859e-23
-2.52865e-20
-8.36165e-21
-2.29822e-19
-1.64063e-19
-2.29582e-50
1.37148e-48
-9.43366e-45
2.32074e-46
-4.26843e-41
5.0219e-45
-7.31972e-37
-5.33296e-43
-2.74486e-36
-1.65637e-39
-2.21732e-34
-8.93345e-37
-9.57248e-31
-1.63349e-33
-3.40306e-29
-1.28598e-30
-2.47703e-28
-1.76948e-29
-8.10282e-28
-7.45227e-29
-1.38838e-27
-1.67327e-28
-1.50752e-27
-1.9169e-28
-1.37423e-27
-1.74294e-28
-6.74057e-28
-1.24676e-28
-6.93575e-29
-5.61567e-29
-7.2478e-29
-3.76782e-29
-1.26164e-28
-1.24221e-28
-1.83138e-27
-2.43636e-27
-2.29507e-26
-5.19464e-26
-2.84866e-25
-8.3801e-25
-2.59444e-23
-2.15598e-23
-4.63775e-21
-3.1183e-21
-1.03588e-19
-2.05854e-20
-1.64079e-50
5.6437e-49
1.97258e-47
8.70633e-47
-6.70505e-45
2.13014e-45
-5.54491e-43
1.36447e-46
-2.58933e-41
-5.03611e-43
-4.25284e-38
-1.07862e-39
-1.49071e-33
-2.82914e-36
-8.97842e-32
-4.32707e-33
-8.0285e-31
-8.99729e-32
-3.35518e-30
-5.00584e-31
-4.84984e-30
-1.40351e-30
-5.08481e-30
-2.5861e-30
-4.48528e-30
-2.8363e-30
-2.18069e-30
-2.66751e-30
-1.2568e-30
-1.76353e-30
-1.34057e-30
-1.8639e-30
-7.9389e-30
-1.79836e-29
-1.8113e-28
-5.05443e-28
-2.36774e-27
-1.24523e-26
-1.88502e-26
-2.26582e-25
-4.92939e-25
-5.55009e-24
1.2122e-22
-1.12783e-21
-4.37184e-20
1.03907e-20
-8.37557e-51
1.54123e-49
1.97067e-48
2.18861e-47
1.08518e-48
5.63521e-46
-6.01915e-45
1.47258e-46
-8.38859e-45
-3.38942e-46
-9.77225e-40
-3.29541e-44
-2.35325e-36
-1.18317e-41
-2.43282e-34
-3.2556e-38
-3.09058e-33
-5.89319e-35
-1.37069e-32
-1.45186e-33
-3.88639e-32
-8.36635e-33
-4.90681e-32
-2.43115e-32
-4.78991e-32
-3.40911e-32
-2.97262e-32
-3.18363e-32
-2.63134e-32
-2.33375e-32
-3.03116e-32
-9.69178e-32
-3.23661e-31
-3.24437e-30
-1.1878e-30
-1.05732e-28
2.51823e-28
-2.81682e-27
1.18775e-26
-5.79868e-26
5.43048e-25
-1.42731e-24
1.93315e-22
-3.90141e-22
-1.7209e-20
1.03997e-20
-2.78349e-51
2.09599e-50
-4.39856e-50
2.76076e-48
5.157e-49
7.47141e-47
-1.10894e-48
1.93571e-47
-2.51315e-48
2.99718e-48
-2.54082e-46
-3.41385e-48
-2.15978e-43
-6.75368e-46
-1.73719e-38
-3.76631e-42
-2.24624e-36
-3.79178e-38
-2.78291e-35
-3.46138e-36
-1.38459e-34
-2.67986e-35
-2.31496e-34
-9.06637e-35
-1.71866e-34
-1.3782e-34
-6.07217e-35
-1.22795e-34
2.97987e-35
-3.775e-34
1.2507e-33
-1.44542e-32
1.03264e-31
-5.73482e-31
5.82393e-30
-1.99621e-29
2.42469e-28
-5.75571e-28
7.50503e-27
-1.36517e-26
2.69066e-25
-3.57573e-25
1.09122e-22
-1.27765e-22
-6.19324e-21
5.9059e-21
-4.60147e-52
2.88617e-60
-1.48151e-50
4.43289e-58
-1.13794e-49
2.64414e-57
1.23197e-51
-2.2324e-54
-2.99323e-51
-1.74356e-51
-5.05537e-51
-9.73606e-51
-4.13734e-48
-3.89477e-49
-6.57187e-43
-1.55802e-47
-5.52514e-40
-1.44127e-43
-2.81873e-39
-5.96731e-40
5.14066e-38
-1.73779e-38
3.97565e-37
-1.08961e-37
8.86713e-37
-1.79201e-37
1.31532e-36
-8.66959e-37
1.11646e-35
-4.3687e-35
7.73171e-34
-2.08824e-33
4.36819e-32
-8.70627e-32
2.10542e-30
-3.31823e-30
8.26655e-29
-1.06348e-28
2.66885e-27
-2.92864e-27
9.48984e-26
-8.43974e-26
4.68981e-23
-3.83737e-23
-1.98691e-21
2.61074e-21
-7.57707e-62
1.51409e-60
-3.80998e-60
2.17351e-58
-1.5372e-59
1.3772e-57
2.27107e-56
1.71204e-58
1.41674e-53
-5.29943e-54
4.25468e-53
-4.78671e-52
2.36754e-51
-1.82281e-50
1.22339e-49
-7.66505e-49
1.49271e-45
-4.08697e-47
8.26854e-42
-4.38924e-45
3.03885e-40
-9.5356e-43
1.95294e-39
-2.08779e-41
4.30789e-39
-1.1829e-39
3.83623e-38
-8.64637e-38
2.94289e-36
-5.0379e-36
1.85666e-34
-2.52458e-34
1.0095e-32
-1.15465e-32
4.99853e-31
-4.88429e-31
2.0723e-29
-1.76104e-29
7.41335e-28
-5.60843e-28
2.79056e-26
-1.78751e-26
1.67988e-23
-1.01277e-23
-5.55724e-22
9.56384e-22
-4.64472e-62
5.95608e-61
-2.48272e-60
8.03314e-59
-1.30355e-59
5.40311e-58
-1.68035e-60
1.0217e-58
5.64789e-56
-2.33925e-56
5.84704e-54
-2.74655e-54
2.62424e-52
-2.56155e-52
1.36524e-50
-2.45949e-50
9.08773e-49
-2.845e-48
1.22006e-46
-1.90336e-46
3.24786e-44
-1.6073e-44
9.17434e-43
-1.36505e-42
6.82628e-41
-1.23156e-40
6.50627e-39
-7.69363e-39
4.78303e-37
-4.63815e-37
3.02212e-35
-2.61993e-35
1.74425e-33
-1.3426e-33
9.27809e-32
-6.2371e-32
4.20937e-30
-2.55333e-30
1.6948e-28
-9.44453e-29
6.86916e-27
-3.26088e-27
5.00565e-24
-2.26715e-24
-1.33326e-22
2.93541e-22
-2.08384e-62
1.56221e-61
-1.09215e-60
1.99134e-59
-6.54459e-60
1.4214e-58
-1.3595e-60
2.73923e-59
3.5312e-58
-2.76838e-58
4.75545e-56
-4.5931e-56
5.29512e-54
-5.58219e-54
6.24535e-52
-7.61522e-52
9.00486e-50
-8.93334e-50
7.40933e-48
-1.04099e-47
7.71761e-46
-1.11952e-45
8.28643e-44
-9.12472e-44
9.36967e-42
-7.56623e-42
7.17034e-40
-5.32088e-40
5.36026e-38
-3.73209e-38
3.7548e-36
-2.32169e-36
2.38305e-34
-1.32216e-34
1.36782e-32
-6.80216e-33
6.94416e-31
-3.22267e-31
3.19609e-29
-1.39447e-29
1.37519e-27
-4.97258e-28
1.20772e-24
-4.21958e-25
-2.7085e-23
7.45223e-23
-6.09003e-63
2.04962e-62
-2.97047e-61
2.48628e-60
-1.91227e-60
1.88217e-59
-4.1407e-61
3.44096e-60
5.25998e-60
-3.04749e-60
9.24986e-58
-7.78157e-58
1.34369e-55
-1.33293e-55
2.23099e-53
-2.21095e-53
3.20421e-51
-3.20083e-51
4.63333e-49
-3.81209e-49
6.16665e-47
-4.38391e-47
6.17151e-45
-4.09539e-45
6.27924e-43
-3.97101e-43
5.4422e-41
-3.11212e-41
4.70321e-39
-2.41029e-39
3.5953e-37
-1.70468e-37
2.51294e-35
-1.08291e-35
1.58675e-33
-6.33427e-34
9.25592e-32
-3.48755e-32
4.93334e-30
-1.76402e-30
2.15973e-28
-6.13094e-29
2.29358e-25
-6.4677e-26
-4.58785e-24
1.52436e-23
-8.6718e-64
1.41579e-79
-3.79772e-62
9.91975e-77
-2.51554e-61
-1.58714e-71
-5.166e-62
-1.95566e-63
1.09678e-61
-3.7151e-62
1.54541e-59
-1.09622e-59
3.16081e-57
-2.54788e-57
6.36009e-55
-4.64025e-55
1.12966e-52
-7.71035e-53
1.65415e-50
-1.02351e-50
2.34504e-48
-1.33962e-48
2.70538e-46
-1.41816e-46
3.23795e-44
-1.55921e-44
3.12439e-42
-1.40163e-42
2.97242e-40
-1.17967e-40
2.58512e-38
-9.98267e-39
2.01266e-36
-7.16275e-37
1.44312e-34
-4.77439e-35
9.75012e-33
-3.05259e-33
6.03615e-31
-1.8286e-31
2.5518e-29
-5.90229e-30
3.35893e-26
-8.11503e-27
-6.33406e-25
2.4375e-24
-6.2887e-81
7.74525e-80
-1.45857e-78
5.2287e-77
3.8081e-73
1.90271e-75
4.89128e-65
-6.74208e-68
5.18447e-64
-3.10373e-64
1.84532e-61
-1.01671e-61
5.09387e-59
-2.87939e-59
1.12655e-56
-6.20667e-57
2.30508e-54
-1.12809e-54
3.79863e-52
-1.88689e-52
6.18015e-50
-2.64335e-50
8.14486e-48
-3.43292e-48
1.11231e-45
-4.2864e-46
1.2392e-43
-4.38523e-44
1.29004e-41
-4.32895e-42
1.34917e-39
-4.28042e-40
1.19239e-37
-3.72705e-38
9.76096e-36
-2.78819e-36
7.66698e-34
-2.11678e-34
5.59967e-32
-1.50126e-32
2.18993e-30
-4.36864e-31
3.75863e-27
-8.36792e-28
-6.89608e-26
2.95985e-25
-3.47938e-81
3.18028e-80
-7.01593e-79
2.09602e-77
-1.88629e-77
1.63077e-74
6.95874e-70
-1.53678e-70
3.39127e-66
-8.89404e-67
1.23856e-63
-4.61948e-64
4.13017e-61
-1.3201e-61
1.08834e-58
-3.79693e-59
2.47057e-56
-8.38586e-57
5.2223e-54
-1.77458e-54
9.26237e-52
-2.88192e-52
1.52678e-49
-5.18049e-50
2.40655e-47
-7.14028e-48
3.09869e-45
-8.83741e-46
3.84139e-43
-1.11133e-43
4.74174e-41
-1.28137e-41
5.13138e-39
-1.30099e-39
4.74919e-37
-1.17925e-37
4.4581e-35
-1.1495e-35
3.83776e-33
-8.81621e-34
1.35676e-31
-2.48636e-32
3.25123e-28
-7.24609e-29
-5.651e-27
2.64846e-26
-1.38654e-81
8.71625e-81
-2.44686e-79
5.69307e-78
-1.22939e-76
5.09651e-75
1.09897e-72
-1.0814e-73
6.10785e-69
-5.09605e-70
3.33882e-66
-3.07339e-67
1.10614e-63
-1.55514e-64