/*--------------------------------*- C++ -*----------------------------------*\
| =========                 |                                                 |
| \\      /  F ield         | OpenFOAM: The Open Source CFD Toolbox           |
|  \\    /   O peration     | Version:  5.x                                   |
|   \\  /    A nd           | Web:      www.OpenFOAM.org                      |
|    \\/     M anipulation  |                                                 |
\*---------------------------------------------------------------------------*/
FoamFile
{
    version     2.0;
    format      ascii;
    class       volScalarField;
    location    "0.4";
    object      alpha.water;
}
// * * * * * * * * * * * * * * * * * * * * * * * * * * * * * * * * * * * * * //

dimensions      [0 0 0 0 0 0 0];

internalField   nonuniform List<scalar> 
2268
(
1
1
1
1
1
1
1
1
1
1
1
1
1
1
1
1
1
1
1
0.964159
0.741007
0.900278
1
0.999999
1
1
1
1
1
1
1
1
1
1
1
1
1
1
1
1
1
1
0.997429
0.875017
0.924158
1
1
1
1
1
1
1
1
1
1
1
1
1
1
1
1
1
1
1
1
1
0.999873
0.998784
0.997751
1
1
1
1
1
1
1
1
1
1
1
1
1
1
1
1
1
1
1
1
0.999997
0.999999
0.994562
1
1
1
1
1
1
1
1
1
1
1
1
1
1
1
1
1
1
1
1
1
1
0.998207
1
1
1
1
1
1
1
1
1
1
1
1
1
1
1
1
1
1
1
1
1
1
0.999683
1
1
1
1
1
1
1
1
1
1
1
1
1
1
1
1
1
1
1
1
1
1
1
1
1
1
0.999999
0.999999
0.999999
1
1
1
1
1
1
1
1
1
1
1
1
1
1
1
1
1
0
-3.77952e-26
8.08297e-10
1.04706e-10
5.61513e-13
1.25233e-14
7.19928e-17
3.08944e-20
1.17466e-21
2.42756e-22
4.9525e-22
1.24558e-21
1.46882e-21
8.05945e-22
3.98489e-22
3.80354e-22
5.83293e-22
3.9048e-22
3.59988e-23
9.66601e-26
5.86522e-10
2.97377e-08
2.49954e-09
1.36144e-12
5.87668e-15
-1.20948e-17
7.03918e-19
7.3328e-20
4.57878e-20
1.01681e-19
2.40266e-19
3.32563e-19
2.22545e-19
1.2187e-19
9.12264e-20
1.1923e-19
1.07281e-19
9.41371e-21
-3.2443e-24
2.18418e-08
5.75412e-07
5.40224e-08
3.54814e-11
3.59294e-14
-1.15947e-15
7.31756e-17
2.28321e-17
1.34105e-17
1.12522e-17
2.07023e-17
3.55162e-17
3.4666e-17
1.90526e-17
1.03371e-17
1.03129e-17
9.00388e-18
9.64332e-19
-1.01399e-22
1.94871e-05
1.29756e-05
3.82531e-07
5.72551e-10
-5.89625e-13
-1.05812e-14
2.55992e-15
2.3709e-15
1.35588e-15
9.10732e-16
9.97547e-16
2.40903e-15
2.82207e-15
1.73334e-15
7.68394e-16
5.57776e-16
4.51303e-16
6.57754e-17
1.339e-05
5.75073e-05
0.000107678
1.53091e-05
8.22372e-09
3.12764e-11
-1.30901e-13
7.7237e-15
3.27941e-14
5.12939e-14
6.60777e-14
3.69993e-14
9.89201e-14
8.50565e-14
4.98271e-14
3.24499e-14
2.30424e-14
1.6803e-14
3.876e-15
9.50253e-05
8.53978e-05
0.000185959
2.5151e-05
1.33995e-08
2.87368e-11
2.58101e-14
3.55093e-14
6.2481e-13
2.27905e-12
3.25502e-12
5.69414e-13
2.1343e-12
1.0496e-12
5.51161e-13
4.48973e-13
4.81137e-13
4.06618e-13
1.38265e-13
2.91669e-05
0.000331036
0.00037997
4.63773e-05
1.74636e-08
2.53864e-12
2.78066e-13
2.2764e-13
1.58341e-11
8.05619e-11
1.0024e-10
2.24866e-12
1.65298e-11
5.73772e-12
4.6548e-12
2.32875e-12
3.32874e-12
3.87553e-12
7.85758e-13
4.9539e-21
0.000877078
0.00121172
5.92236e-05
1.49516e-08
3.0422e-13
1.27332e-13
1.27332e-13
2.64273e-13
6.36121e-13
4.30542e-12
2.4654e-12
5.35933e-11
7.83433e-12
1.27632e-11
3.05315e-11
2.00945e-11
1.24094e-11
1.22302e-26
1
1
0.999988
0.999975
0.999979
0.999986
0.999992
0.999995
0.999998
0.999999
0.999999
1
1
1
1
1
1
1
1
1
1
1
1
1
0.999992
0.999829
0.999739
0.99978
0.999836
0.999883
0.999918
0.999941
0.999958
0.999971
0.999982
0.999991
0.999997
1
1
1
1
1
1
1
1
1
1
0.962399
0.793894
0.746126
0.770785
0.775742
0.774892
0.7828
0.796322
0.810843
0.825911
0.844504
0.869711
0.90282
0.940912
0.985876
0.999999
1
1
1
1
1
1
0.746073
0.336917
0.0758856
0.0683681
0.0856743
0.0769325
0.067548
0.0696398
0.0765251
0.0853742
0.0951179
0.108697
0.130314
0.164663
0.213384
0.281772
0.41863
0.651431
0.932382
1
1
1
1
0.00818129
2.22757e-18
6.59535e-17
1.83443e-15
1.5295e-14
2.70488e-14
1.05665e-13
5.56462e-13
1.59819e-12
1.06246e-11
1.69786e-10
7.14817e-10
1.1634e-09
4.74239e-09
9.49081e-08
2.01107e-06
0.00234285
0.0249102
0.105998
0.270348
0.559654
0.925085
0.999998
0
4.53272e-20
2.19795e-18
6.59539e-17
6.28838e-14
3.72551e-12
2.169e-11
3.57562e-11
1.95604e-10
8.88477e-09
2.83998e-08
7.53525e-09
4.74239e-09
6.31449e-08
8.86972e-05
0.00035743
0.000263744
0.000267143
0.000267143
0.000538321
0.0137963
0.123494
0.363404
0
2.25013e-19
1.99325e-16
2.96903e-14
2.04835e-12
3.52637e-11
1.22084e-10
1.42331e-10
1.48455e-10
3.88386e-08
2.02554e-07
1.49314e-07
6.70913e-08
1.24469e-07
0.000295697
0.000708794
0.000603284
0.000415044
0.000695037
0.000731621
0.000460605
0.000159565
0.000367205
0
5.51812e-20
2.77293e-16
5.34452e-14
4.40237e-12
6.36487e-11
1.91557e-10
2.03502e-10
1.39072e-10
4.6304e-08
2.02427e-07
2.02269e-07
7.48795e-08
7.64152e-08
0.000230535
0.000476393
0.000624482
0.000641645
0.000598804
0.000777791
0.000657894
6.38046e-05
7.30907e-05
0
1.21126e-20
1.01083e-16
4.53862e-14
4.48302e-12
6.63728e-11
2.03357e-10
2.11507e-10
5.87046e-11
1.66765e-08
1.99907e-07
1.11724e-07
7.70334e-08
5.61187e-07
5.73799e-07
3.79849e-11
6.77612e-05
0.000277972
0.000136466
0.000131649
8.58702e-05
6.13396e-05
6.00983e-05
-4.47659e-20
-3.92339e-20
2.5945e-17
2.50686e-14
3.14485e-12
4.72258e-11
1.61727e-10
1.79041e-10
5.15249e-11
2.22267e-09
1.77256e-08
6.85922e-10
2.00033e-07
2.26055e-06
2.46475e-09
1.78257e-12
3.79849e-11
7.56705e-09
0.000208738
0.000358143
0.000215731
6.01909e-05
6.01937e-05
-5.37208e-20
-1.7237e-36
7.4706e-18
1.16377e-14
1.58945e-12
2.02541e-11
7.24956e-11
7.40647e-11
3.94993e-11
2.61948e-11
2.62427e-11
6.38259e-10
1.63509e-07
5.84671e-08
1.42398e-11
1.2404e-12
1.02446e-12
4.04996e-06
0.000215041
0.000380345
0.000379973
0.000182806
6.04922e-05
-3.03933e-20
3.4134e-21
3.80809e-18
3.62142e-15
5.65315e-13
6.02328e-12
2.19764e-11
2.14477e-11
1.54389e-11
9.89952e-11
4.1046e-11
1.49613e-11
2.34465e-08
3.06051e-27
-9.81815e-13
9.52031e-29
1.14138e-30
2.28311e-12
1.0886e-10
6.86862e-05
0.000305966
0.000506197
0.000509947
-1.56328e-20
1.51387e-23
2.39765e-18
7.12466e-16
1.42307e-13
1.47488e-12
4.81517e-12
4.89448e-12
5.01809e-12
7.37254e-11
5.4015e-11
1.90356e-11
3.13805e-14
-2.87283e-37
-6.55602e-12
-9.52839e-12
-5.49557e-12
-6.18656e-29
-2.70621e-15
1.21168e-14
1.15872e-13
1.56816e-12
6.531e-05
-9.32366e-21
-1.76738e-37
1.35534e-18
1.09814e-16
2.68248e-14
2.85967e-13
8.41563e-13
8.74299e-13
1.13824e-12
1.28179e-11
1.41503e-11
1.35846e-11
5.68889e-12
2.09153e-12
-3.54859e-12
-5.47008e-12
-3.86581e-12
-1.6535e-12
-2.46556e-13
-2.56948e-24
2.53655e-14
1.1587e-13
7.34251e-13
-6.84237e-21
-3.20367e-21
6.71635e-19
1.46763e-17
3.86738e-15
4.10823e-14
1.21656e-13
1.46598e-13
2.17292e-13
4.57778e-13
1.80477e-12
3.87809e-12
5.45185e-12
2.63899e-12
-5.84218e-13
-1.76444e-12
-1.43794e-12
-6.57199e-13
8.17985e-14
1.08485e-12
1.54556e-12
1.22678e-12
1.22774e-12
-5.25765e-21
-7.12264e-21
2.40277e-19
1.82078e-18
4.279e-16
4.47548e-15
1.35897e-14
2.41021e-14
5.21986e-14
1.405e-13
5.5997e-13
1.05375e-12
1.42176e-12
6.25623e-13
2.08728e-13
-1.84076e-13
-2.27979e-13
-1.13681e-13
5.60673e-15
1.00962e-13
4.69694e-13
1.5294e-12
3.96545e-12
-3.66806e-21
-6.71046e-21
5.20822e-20
2.35278e-19
3.51355e-17
3.63907e-16
1.27153e-15
4.235e-15
1.36754e-14
3.14166e-14
8.33482e-14
1.15698e-13
9.94203e-14
6.9461e-14
7.20818e-14
3.40743e-14
6.63317e-15
6.70379e-15
6.76888e-15
1.10064e-14
6.82547e-14
3.63781e-13
1.62737e-12
-2.17782e-21
-4.68825e-21
5.40174e-21
3.02115e-20
2.03714e-18
2.13139e-17
1.30282e-16
8.49317e-16
3.46714e-15
8.30908e-15
1.40378e-14
1.47181e-14
1.27578e-14
7.45881e-15
2.5483e-15
5.29484e-16
7.42955e-17
1.02407e-16
2.95946e-16
2.7676e-15
2.09148e-14
1.39907e-13
8.35994e-13
-1.06267e-21
-2.59514e-21
-4.81287e-22
2.73479e-21
7.66973e-20
9.82577e-19
1.69956e-17
1.61521e-16
7.37662e-16
1.89894e-15
2.86346e-15
2.87572e-15
2.44133e-15
1.41008e-15
4.67935e-16
8.07197e-17
1.13759e-17
1.29861e-17
6.88733e-17
6.8973e-16
5.80651e-15
5.41987e-14
4.49636e-13
-4.1162e-22
-1.11897e-21
-9.43173e-22
-3.32113e-24
1.44455e-21
5.57027e-20
2.13341e-18
2.34003e-17
1.19617e-16
3.27271e-16
5.31877e-16
5.42878e-16
4.60785e-16
2.61614e-16
8.02028e-17
1.10298e-17
1.54263e-18
2.21649e-18
1.47433e-17
1.5648e-16
1.5736e-15
2.25036e-14
2.47192e-13
-1.20703e-22
-3.55629e-22
-5.3572e-22
-1.19826e-22
3.50097e-40
4.09116e-21
1.76527e-19
2.45579e-18
1.44202e-17
4.19099e-17
7.5041e-17
7.9006e-17
6.96929e-17
4.21909e-17
1.32774e-17
1.48312e-18
1.88953e-19
3.48261e-19
2.95837e-18
3.25209e-17
4.21227e-16
9.59869e-15
1.35773e-13
-2.49653e-23
-7.62351e-23
-1.56279e-22
-5.37287e-23
-1.08647e-23
1.602e-22
8.4744e-21
1.91113e-19
1.27702e-18
3.91747e-18
7.4173e-18
8.04717e-18
7.33748e-18
4.76494e-18
1.61534e-18
1.84756e-19
2.63274e-20
5.9212e-20
5.74084e-19
6.48127e-18
1.13762e-16
4.08394e-15
7.40625e-14
-3.25104e-24
-9.6434e-24
-2.12223e-23
-7.1263e-24
-1.60444e-24
7.31488e-27
2.71139e-22
1.10251e-20
7.99954e-20
2.52727e-19
4.86137e-19
5.4414e-19
5.08946e-19
3.50544e-19
1.28346e-19
1.59245e-20
3.55665e-21
9.99557e-21
1.10958e-19
1.32696e-18
3.07466e-17
1.71183e-15
3.92886e-14
-2.11344e-25
-6.1232e-25
-1.39776e-24
-4.5594e-25
-9.96596e-26
1.31164e-28
8.30022e-24
4.14386e-22
3.18584e-21
1.04371e-20
2.02099e-20
2.37217e-20
2.25072e-20
1.60413e-20
6.16982e-21
8.25263e-22
3.54607e-22
1.57259e-21
2.23792e-20
2.99436e-19
8.22638e-18
6.97363e-16
1.95898e-14
-1.18308e-43
0
-1.58225e-52
1.3234e-33
2.66675e-30
5.40099e-30
2.8087e-26
6.24433e-24
6.22349e-23
2.29369e-22
4.68169e-22
5.96756e-22
5.65166e-22
3.95667e-22
1.45105e-22
2.21623e-23
2.60476e-23
2.62488e-22
4.94439e-21
7.6246e-20
2.17136e-18
2.69299e-16
8.97276e-15
-6.46481e-44
-5.32243e-42
-1.31314e-40
2.00151e-40
1.5342e-35
1.1505e-33
1.5259e-29
1.77929e-26
2.48308e-25
1.05884e-24
2.40981e-24
2.8088e-24
2.60414e-24
1.90827e-24
8.87454e-25
6.25982e-25
2.28824e-24
5.04246e-23
1.17605e-21
2.07087e-20
5.64132e-19
9.78981e-17
3.78997e-15
-2.62883e-44
-2.0154e-42
-5.61373e-41
-3.76669e-42
4.56123e-40
8.53201e-38
2.13549e-32
5.99951e-29
1.26559e-27
7.133e-27
2.02977e-26
3.81089e-26
4.26455e-26
4.10446e-26
2.79762e-26
3.12923e-26
3.46846e-25
1.0566e-23
2.78484e-22
5.49292e-21
1.4332e-19
3.37217e-17
1.49002e-15
-7.074e-45
-5.10817e-43
-1.49506e-41
-4.08149e-42
4.61876e-42
5.24909e-40
5.56532e-38
2.9787e-34
8.267e-31
2.06782e-29
1.20832e-28
3.56705e-28
5.08988e-28
4.84499e-28
3.661e-28
1.70778e-27
6.28108e-26
2.15657e-24
6.07729e-23
1.34828e-21
3.54511e-20
1.10063e-17
5.41646e-16
-9.44958e-46
-6.49014e-44
-1.99346e-42
-5.38008e-43
-8.36106e-44
4.67512e-44
6.04214e-42
3.00328e-38
5.33006e-34
4.92628e-32
3.85697e-31
1.32188e-30
2.03951e-30
1.85469e-30
6.21211e-30
2.61248e-28
1.07797e-26
3.91774e-25
1.18999e-23
3.0226e-22
8.45321e-21
3.36853e-18
1.7843e-16
-1.27325e-55
-1.04848e-53
-7.08728e-53
6.21625e-50
4.86998e-47
1.38358e-46
5.55017e-45
2.23607e-43
2.02863e-39
8.46595e-36
2.48927e-34
1.57875e-33
2.63957e-33
1.36753e-32
7.41145e-31
3.65911e-29
1.57485e-27
6.24695e-26
2.09989e-24
6.13955e-23
1.87725e-21
9.35008e-19
5.20401e-17
-6.50866e-56
-5.1692e-54
-3.70596e-53
-4.77251e-54
7.32525e-50
6.80497e-48
2.6104e-46
1.11472e-44
5.95613e-43
6.34982e-41
1.37073e-38
3.11039e-37
1.82438e-35
1.39662e-33
8.3076e-32
4.26526e-30
2.01058e-28
8.79564e-27
3.30496e-25
1.10724e-23
3.70253e-22
2.25935e-19
1.31657e-17
-2.48415e-56
-1.92116e-54
-1.459e-53
-2.84808e-54
3.24794e-52
3.83451e-50
3.61348e-48
3.53152e-46
4.185e-44
2.81138e-42
2.378e-40
2.07802e-38
1.92097e-36
1.20521e-34
7.39645e-33
4.27073e-31
2.24341e-29
1.0704e-27
4.53642e-26
1.7495e-24
6.24428e-23
4.60254e-20
2.84387e-18
-6.2954e-57
-4.79338e-55
-3.85066e-54
-7.62975e-55
3.8498e-54
6.43384e-52
7.88839e-50
1.08711e-47
1.28414e-45
1.52027e-43
1.65717e-41
1.35866e-39
1.1341e-37
8.08479e-36
5.76128e-34
3.64406e-32
2.11342e-30
1.11052e-28
5.40575e-27
2.41476e-25
8.75784e-24
7.76894e-21
5.17625e-19
-7.94967e-58
-6.03528e-56
-5.11597e-55
-9.57202e-56
4.2279e-56
1.08545e-53
1.87374e-51
3.12476e-49
4.55587e-47
5.44763e-45
6.30042e-43
5.93248e-41
5.8068e-39
4.59375e-37
3.58918e-35
2.57219e-33
1.65432e-31
9.81936e-30
5.50425e-28
2.84419e-26
9.90519e-25
1.07907e-21
7.82715e-20
-5.2684e-75
-2.43524e-72
4.32877e-67
5.43118e-59
5.13964e-58
1.51907e-55
3.54571e-53
6.4751e-51
1.07907e-48
1.43834e-46
1.88888e-44
2.00989e-42
2.22019e-40
2.00655e-38
1.69732e-36
1.44745e-34
1.04663e-32
7.02195e-31
4.53097e-29
2.74308e-27
8.76591e-26
1.23072e-22
9.64841e-21
-2.75957e-75
-1.30264e-72
-5.21373e-71
9.23996e-64
4.26723e-60
1.39914e-57
3.96553e-55
8.56034e-53
1.5571e-50
2.61032e-48
3.65875e-46
4.76669e-44
5.95647e-42
6.10241e-40
6.03864e-38
5.97758e-36
5.21355e-34
3.9003e-32
2.9685e-30
2.09958e-28
6.00725e-27
1.163e-23
9.43101e-22
-1.08439e-75
-5.31756e-73
-4.49032e-70
2.10636e-66
1.21729e-62
6.32141e-60
1.80489e-57
5.18856e-55
1.14539e-52
2.42179e-50
3.9311e-48
7.06086e-46
9.71089e-44
1.20103e-41
1.50666e-39
1.72931e-37
1.74632e-35
1.5742e-33
1.52976e-31
1.15246e-29
3.19659e-28
9.31087e-25
7.01043e-23
-2.84787e-76
-1.47495e-73
-1.41056e-70
1.48063e-69
6.96682e-66
4.1947e-63
2.11897e-60
6.85867e-58
2.65771e-55
6.47537e-53
1.96816e-50
3.75144e-48
6.84662e-46
1.40444e-43
2.05035e-41
2.71015e-39
3.32293e-37
3.82171e-35
5.41934e-33
3.54406e-31
1.30935e-29
5.92882e-26
3.68535e-24
-3.76154e-77
-2.08611e-74
-1.93866e-71
-1.10636e-72
1.51969e-70
2.30351e-67
1.21378e-64
8.0159e-62
4.42937e-59
1.75374e-56
6.41149e-54
2.61035e-51
7.46497e-49
1.9549e-46
6.45073e-44
1.41066e-41
2.63156e-39
4.35514e-37
7.4751e-35
4.40542e-33
2.68406e-31
2.06671e-27
1.13594e-25
1.75949e-98
0
0
8.31472e-81
1.90933e-77
7.72591e-74
9.46503e-71
1.06012e-67
1.05938e-64
6.70651e-62
5.55323e-59
2.95788e-56
1.47941e-53
1.02693e-50
3.9418e-48
1.54517e-45
5.38837e-43
1.63535e-40
3.74294e-38
4.3315e-36
1.29121e-33
2.93121e-29
1.51213e-27
-1.2052e-103
-3.34232e-105
-3.09746e-107
5.1955e-95
2.77856e-90
-6.30166e-111
4.67595e-83
1.18943e-79
3.00805e-76
5.17238e-73
1.18752e-69
1.73066e-66
2.39516e-63
4.26564e-60
4.7068e-57
5.0046e-54
4.75793e-51
3.92347e-48
2.43152e-45
7.46526e-43
3.06903e-36
9.69871e-32
3.81979e-30
-1.52954e-104
-2.21072e-106
-9.06253e-109
-3.4265e-111
-1.26362e-113
-1.07394e-104
-2.20814e-106
9.95124e-95
0
4.22988e-87
0
-3.15083e-111
2.07879e-77
3.46881e-74
4.1733e-71
3.28431e-68
4.3277e-65
3.29316e-62
-1.99708e-81
5.58552e-57
1.85166e-53
6.33542e-45
2.1398e-44
1
1
0.794435
0.235006
1
1
1
0.946635
1
1
1
0.999956
1
1
1
0.999998
1
1
0.999998
0.99998
0.597291
0.761085
0.938366
0.99997
0.0161504
0.0511074
0.121499
0.230007
9.66264e-05
0.000136203
0.000210086
0.000322245
6.05148e-05
6.50683e-05
7.39855e-05
8.85473e-05
6.01937e-05
6.15543e-05
6.5819e-05
7.42317e-05
0.000119769
0.000220333
0.000376571
0.000528749
0.000511644
0.00051286
0.000512827
0.000483972
9.06818e-05
6.84387e-05
6.11658e-05
4.48737e-05
1.51051e-12
4.39646e-12
3.98409e-11
4.55241e-10
1.25407e-12
1.51051e-12
4.39646e-12
9.04135e-12
5.58076e-12
6.73528e-12
9.39893e-12
9.50381e-12
3.53044e-12
6.34951e-12
1.03511e-11
1.27008e-11
1.94954e-12
3.78032e-12
7.22433e-12
8.31443e-12
1.1517e-12
2.11237e-12
3.90191e-12
5.36127e-12
6.68758e-13
1.26382e-12
2.40727e-12
4.55403e-12
3.8354e-13
7.3417e-13
1.46015e-12
3.48551e-12
2.16605e-13
4.17075e-13
8.09855e-13
1.86262e-12
1.17486e-13
2.27495e-13
4.6515e-13
7.5991e-13
5.93127e-14
1.14685e-13
2.46034e-13
3.82854e-13
2.74062e-14
5.27539e-14
1.14534e-13
1.97558e-13
1.15966e-14
2.23304e-14
4.83226e-14
9.93613e-14
4.52872e-15
8.68458e-15
2.01105e-14
5.15514e-14
1.62046e-15
3.10055e-15
8.38857e-15
2.62499e-14
5.20567e-16
1.01007e-15
3.40864e-15
1.29293e-14
1.47022e-16
2.97101e-16
1.30796e-15
5.8936e-15
3.5933e-17
7.82152e-17
4.58757e-16
2.33512e-15
7.51163e-18
1.82869e-17
1.4057e-16
7.60183e-16
1.32807e-18
3.75532e-18
3.66798e-17
1.97561e-16
1.95572e-19
6.6827e-19
7.92855e-18
4.02647e-17
2.34239e-20
9.96985e-20
1.37588e-18
6.36485e-18
2.18877e-21
1.14877e-20
1.7549e-19
7.4985e-19
1.4825e-22
8.62605e-22
1.38822e-20
6.28801e-20
6.4516e-24
3.07648e-23
5.50898e-22
4.02024e-21
1.55515e-25
5.02499e-25
1.55315e-23
2.43004e-22
1.11224e-27
7.92427e-27
5.1627e-25
1.04738e-23
1.5447e-30
5.7883e-31
3.75734e-29
1.51772e-27
9.3106e-45
-4.60494e-63
-5.05536e-45
-8.64997e-46
0.0011626
0.00132431
0.00127161
6.10299e-06
7.14751e-08
1.21181e-09
3.0422e-13
1.79674e-10
6.36121e-13
3.20184e-08
3.3945e-07
1.06808e-11
7.33445e-11
7.23209e-11
1.14882e-10
8.41438e-10
3.49972e-10
1.81459e-10
-3.92573e-25
0.186498
0.0866265
5.61797e-07
1.02598e-08
3.66483e-09
2.23325e-09
4.77126e-07
1.91252e-06
5.95305e-08
3.49827e-08
7.5035e-08
9.18823e-09
6.94623e-09
1.7194e-09
2.12105e-09
1.24235e-08
4.33981e-09
1.94699e-09
-4.48577e-12
0.760499
0.317745
2.18999e-08
4.23936e-09
4.23936e-09
3.3391e-09
6.43866e-08
1.19983e-07
6.28214e-08
3.78451e-05
0.000221792
8.31257e-07
5.90941e-07
1.12708e-07
2.74037e-07
4.26426e-07
1.01073e-07
4.0421e-08
-9.50231e-11
0.999947
0.974442
0.26479
2.18999e-08
0.0639881
4.585e-09
3.30472e-08
5.58805e-08
1.85019e-07
1.44521e-06
1.14456e-05
2.18027e-05
1.0001e-05
5.76079e-06
1.17546e-05
1.05661e-05
1.90998e-06
6.76677e-07
-1.09651e-08
0.99997
0.999662
0.944251
0.584897
0.712058
0.685137
0.339765
0.264152
0.448847
0.356722
0.186771
0.0898229
3.04156e-05
0.0147634
0.000184204
0.000166792
2.75372e-05
8.76795e-06
-5.25259e-08
0.999662
0.999093
0.998837
0.996203
0.983202
0.973025
0.959569
0.942111
0.966013
0.959086
0.915026
0.870323
0.79679
0.629456
0.160952
0.0452635
0.000298788
8.51414e-05
-1.13214e-07
0.486458
0.779344
0.933596
0.983484
0.973546
0.973546
0.973025
0.971987
0.9709
0.970583
0.970365
0.969093
0.966677
0.962789
0.959285
0.699779
0.0712794
0.000608336
-5.69128e-06
0.00463744
0.0672961
0.182131
0.328787
0.480085
0.580528
0.641333
0.677654
0.701823
0.728705
0.78789
0.937736
0.962789
0.959615
0.958965
0.958635
0.623724
0.0584882
0.0380442
0.000120755
0.000197077
0.000375992
0.000756447
0.00388774
0.0137921
0.0255493
0.036444
0.0457007
0.0580314
0.0867412
0.16643
0.328654
0.755495
0.958635
0.955686
0.934965
0.489025
0.385651
8.85623e-05
0.000120776
0.000209955
0.000478381
0.000591404
0.000254355
6.67901e-05
2.82537e-05
3.40108e-05
4.23027e-05
7.21714e-05
0.000161761
0.000508138
0.0398826
0.44575
0.941899
0.941624
0.870268
0.592832
0.000538799
0.000563141
0.000646344
0.000651609
0.000628969
0.000385536
3.41835e-05
5.58325e-07
4.77513e-07
1.11001e-06
1.70254e-06
5.48153e-06
2.46037e-05
0.000173496
0.00195516
0.641834
0.932626
0.92106
0.585817
0.000499233
0.000592572
0.000594628
0.000378909
8.31984e-05
1.16589e-05
2.97818e-07
8.90175e-09
3.04254e-07
3.92925e-07
4.73109e-07
5.97325e-07
1.58249e-06
1.24513e-05
0.000173497
0.310362
0.892841
0.914254
0.545814
7.54577e-05
9.67845e-05
6.44764e-05
3.70268e-06
3.74502e-08
6.75513e-09
9.00042e-10
4.29482e-10
3.12086e-07
4.54291e-07
4.55863e-07
4.74729e-07
6.08678e-07
1.5825e-06
1.24513e-05
0.109963
0.773965
0.911054
0.495442
3.03507e-09
9.65927e-09
1.27738e-08
3.71065e-09
1.21446e-09
5.09865e-10
3.87356e-10
3.67866e-10
3.68225e-10
1.75705e-06
5.36288e-06
6.66449e-07
7.18965e-07
9.12091e-07
9.27902e-06
0.0125649
0.641953
0.904927
0.422059
2.21656e-11
1.16474e-10
3.78074e-10
4.83539e-10
4.19527e-10
4.07075e-10
4.03945e-10
3.84257e-10
3.68225e-10
1.30691e-06
6.62512e-06
6.44574e-06
9.69783e-07
2.68466e-06
3.276e-05
6.41821e-05
0.577905
0.829056
0.292597
1.02965e-11
3.15393e-11
2.19616e-10
4.34287e-10
4.27939e-10
4.22004e-10
3.74952e-09
7.23003e-09
1.76571e-09
1.62147e-09
4.16074e-06
7.02162e-06
6.4214e-06
2.01203e-06
2.24777e-06
0.00144821
0.648011
0.558238
0.116593
5.51636e-11
3.46785e-10
9.1666e-10
1.24795e-09
1.08111e-09
4.49009e-10
4.4966e-10
1.01773e-07
2.71449e-07
5.7459e-08
5.88728e-08
7.06731e-06
7.08483e-06
1.93765e-06
1.96057e-06
0.0442784
0.648043
0.386348
0.00260125
6.26695e-11
6.04714e-10
1.42261e-09
1.75946e-09
1.98629e-09
1.36292e-09
4.51678e-10
1.48927e-07
4.33146e-07
3.83063e-07
6.49263e-08
5.19252e-06
7.07715e-06
1.96057e-06
1.96057e-06
0.0504806
0.647207
0.389156
0
3.28348e-11
3.68379e-10
1.00278e-09
9.52555e-10
1.914e-09
7.29279e-09
1.97373e-08
8.57814e-09
8.49737e-09
5.62394e-07
3.17827e-07
3.38324e-06
7.5097e-06
4.45481e-06
3.4577e-06
0.0269094
0.44007
0.489204
0.0145199
7.89061e-12
1.85677e-10
7.08814e-10
7.12241e-10
6.49204e-10
7.08782e-10
1.26072e-07
2.2644e-07
1.00895e-08
5.39747e-07
1.9501e-06
3.08098e-06
7.58149e-06
7.80275e-06
2.83582e-05
0.00155543
0.205384
0.514334
0.176621
3.81407e-12
2.47821e-10
1.04136e-09
1.12855e-09
6.43735e-10
6.43735e-10
9.2628e-08
3.88853e-07
2.9047e-07
4.32036e-07
1.94892e-06
1.87586e-06
2.74823e-06
3.10993e-06
6.21448e-06
6.32319e-06
0.0644196
0.514417
0.402185
3.31515e-12
3.46209e-10
1.11619e-09
1.1998e-09
7.5586e-10
6.48989e-10
7.79528e-10
3.59049e-07
5.0421e-07
5.13309e-07
6.70265e-07
4.08676e-07
4.31343e-07
5.32539e-07
7.82645e-07
4.49128e-06
0.037519
0.514334
0.308434
4.30529e-12
1.63928e-10
7.01976e-10
8.63733e-10
6.7306e-10
1.66537e-09
1.53793e-09
9.52395e-08
4.43757e-07
5.06758e-07
2.04982e-07
7.24012e-08
9.23153e-08
3.04021e-07
4.13122e-06
6.68772e-05
0.0493619
0.344547
0.115277
9.94235e-12
1.41883e-10
2.54861e-10
4.81545e-10
4.81583e-10
8.88654e-09
2.28968e-08
1.63944e-08
7.19602e-08
3.44109e-07
1.71377e-07
3.62189e-08
6.80132e-08
5.63788e-07
7.35987e-06
0.000929469
0.00596607
0.017227
0.000831516
9.63258e-12
8.16182e-11
1.6776e-10
5.89204e-10
5.87903e-10
1.79894e-09
1.09666e-08
1.09807e-08
1.09863e-08
3.08875e-08
6.07222e-08
1.96441e-08
3.494e-08
6.58093e-07
2.17914e-05
0.000408961
0.00246723
0.0165264
0.0662586
3.47235e-12
5.0625e-11
1.34753e-10
3.14647e-10
7.96902e-11
5.57667e-09
2.75343e-08
2.84699e-08
2.13297e-08
1.34218e-08
1.0334e-08
1.293e-08
2.18891e-08
1.46083e-06
7.98083e-06
1.14759e-06
1.85529e-05
0.0213903
0.266024
1.38229e-12
3.66594e-11
1.34962e-10
1.2049e-10
7.86626e-11
9.79379e-09
2.84667e-08
2.84699e-08
2.4549e-08
1.38465e-08
9.90398e-09
1.37495e-08
2.22397e-08
1.29226e-07
5.38387e-08
4.27239e-07
7.74655e-07
0.0178619
0.487067
1.15318e-12
1.46608e-11
1.01174e-10
7.7277e-11
7.74155e-11
7.06834e-09
1.66408e-08
1.36045e-08
1.01083e-08
9.87333e-09
8.43187e-09
8.45784e-09
5.39224e-09
2.08964e-09
1.51936e-08
0.0119218
0.00875127
0.0442549
0.589018
9.68038e-13
6.37474e-12
3.83787e-11
3.84341e-11
1.12677e-09
3.27647e-09
1.92525e-09
1.50454e-09
1.48978e-09
2.22973e-09
2.30534e-09
1.29816e-09
1.44142e-09
1.81816e-09
0.0728667
0.145628
0.110556
0.144994
0.651535
5.03999e-13
3.10902e-12
1.55979e-11
4.75697e-11
1.32339e-09
1.25999e-09
6.18332e-10
6.55104e-10
6.74486e-10
6.97508e-10
7.51493e-10
8.32582e-10
0.00137962
0.159645
0.175293
0.175293
0.0972795
0.188766
0.770096
1.74358e-13
1.18493e-12
1.01263e-11
2.30706e-11
1.75114e-10
6.43954e-10
3.28175e-10
3.36679e-10
6.44235e-10
6.72687e-10
7.82581e-10
8.74261e-10
0.0389159
0.154373
0.144846
0.0346871
0.013667
0.15701
0.873052
4.87446e-14
3.92191e-13
4.56563e-12
2.47218e-11
1.15795e-11
2.75548e-10
6.7663e-12
7.65092e-12
3.52518e-10
1.13148e-09
0.00376857
0.020197
0.0442112
0.0240503
0.00601036
0.000383853
0.00191624
0.166455
0.850867
1.11951e-14
1.19441e-13
1.01625e-12
1.4772e-11
9.45472e-12
5.85802e-11
1.92404e-14
1.12254e-12
7.86611e-10
1.75905e-08
0.015883
0.033076
0.0114961
0.000671125
0.000323127
0.000293664
0.0307212
0.147787
0.464403
2.13418e-15
3.3143e-14
3.85254e-13
2.94373e-12
2.40965e-12
3.08417e-13
1.30751e-14
4.3781e-06
1.75905e-08
2.29057e-07
0.0133258
0.0355448
0.00778041
0.000323127
0.000293668
0.000303558
0.0502428
0.0376093
0.0158152
3.77862e-16
8.24535e-15
1.22229e-13
5.67337e-13
4.35075e-13
7.30663e-14
1.30962e-14
7.7628e-06
2.41418e-06
3.50926e-07
0.00826922
0.0368651
0.00911489
0.00029629
0.000294984
0.00238453
0.0316361
0.0023214
-1.17699e-06
6.3811e-17
1.67253e-15
3.3265e-14
6.46601e-14
4.05563e-14
5.08369e-15
0
7.68372e-06
3.29194e-06
1.58219e-07
0.0165119
0.0375031
0.0157408
0.000313065
0.0002952
0.00266737
0.00266523
0.000701934
-8.41946e-07
9.15243e-18
2.53285e-16
5.96588e-15
5.01715e-15
1.6668e-15
1.07429e-17
-4.20101e-16
1.83089e-06
3.06735e-06
3.55599e-08
0.0159186
0.0382655
0.022202
0.000338959
0.000295184
0.0010401
0.000603823
0.000171901
-2.94962e-09
9.32342e-19
2.60971e-17
4.91241e-16
3.76158e-16
7.7518e-17
-1.14169e-16
-6.92058e-16
-5.09697e-16
7.25521e-07
-7.7183e-23
0.00141573
0.0390212
0.0311137
0.00102909
0.000260374
0.000209074
0.000217113
3.68788e-05
-5.41413e-10
5.87267e-20
1.60783e-18
2.61476e-17
2.12139e-17
5.07053e-18
-1.35022e-16
-6.49429e-16
-1.21917e-15
-1.45996e-15
-4.95069e-16
-4.65803e-21
0.0392722
0.0444853
0.00643852
0.000209076
0.000158241
8.59594e-05
4.51911e-05
4.23458e-05
2.22139e-21
4.607e-20
5.63675e-19
1.44375e-18
5.16403e-19
-8.87136e-17
-3.93919e-16
-1.00737e-15
-3.60464e-15
-1.52176e-15
0.000519995
0.0429435
0.0444853
0.0197767
0.000182031
0.000132089
7.43334e-05
5.76556e-05
0.000111262
6.58672e-25
6.55164e-23
2.5428e-21
1.09838e-19
2.54433e-20
-3.40444e-17
-1.17163e-16
-5.6511e-16
-4.42443e-15
-4.03519e-15
-1.64761e-15
0.0202072
0.0444853
0.0433456
0.0096926
9.68851e-05
5.82816e-05
5.22858e-05
4.54735e-05
-1.87266e-41
-1.38856e-42
-2.19551e-40
-1.93685e-41
-1.02473e-42
-5.09454e-18
-9.74102e-19
-1.72282e-16
-2.99309e-15
-2.67483e-15
-1.24354e-15
-5.08725e-16
0.0152259
0.02201
0.000556789
0.000251074
0.000110495
8.96325e-05
8.60776e-06
)
;

boundaryField
{
    leftWall
    {
        type            zeroGradient;
    }
    rightWall
    {
        type            zeroGradient;
    }
    lowerWall
    {
        type            zeroGradient;
    }
    atmosphere
    {
        type            inletOutlet;
        inletValue      uniform 0;
        value           nonuniform List<scalar> 
46
(
0
0
0
0
0
0
0
0
0
0
0
0
0
0
0
0
0
0
0
0
0
0
0
0
0
0
0
0
0
0
0
0
0
0
0
0
0
0
0
0.0152259
0.02201
0.000556789
0.000251074
0.000110495
8.96325e-05
0
)
;
    }
    defaultFaces
    {
        type            empty;
    }
}


// ************************************************************************* //
