/*--------------------------------*- C++ -*----------------------------------*\
| =========                 |                                                 |
| \\      /  F ield         | OpenFOAM: The Open Source CFD Toolbox           |
|  \\    /   O peration     | Version:  5.x                                   |
|   \\  /    A nd           | Web:      www.OpenFOAM.org                      |
|    \\/     M anipulation  |                                                 |
\*---------------------------------------------------------------------------*/
FoamFile
{
    version     2.0;
    format      ascii;
    class       volScalarField;
    location    "0.4";
    object      p;
}
// * * * * * * * * * * * * * * * * * * * * * * * * * * * * * * * * * * * * * //

dimensions      [1 -1 -2 0 0 0 0];

internalField   nonuniform List<scalar> 
2268
(
878.645
880.617
888.813
897.356
901.216
899.8
895.634
891.807
890.116
891.234
895.389
902.759
913.632
928.355
947.096
970.02
996.601
1024.38
1046.83
1059
1043.17
1028.5
1071.48
818.757
820.379
828.647
837.099
840.959
839.567
835.503
831.824
830.272
831.492
835.701
843.063
853.741
867.901
885.815
907.747
933.502
961.631
986.731
1001.86
991.295
957.311
1003.89
757.758
759.022
767.184
775.479
779.325
777.989
774.131
770.742
769.463
770.88
775.192
782.563
793.178
807.292
824.904
846.046
870.049
895.473
919.223
935.161
929.817
899.74
945.398
695.906
696.615
704.515
712.579
716.394
715.151
711.598
708.631
707.742
709.434
713.889
721.281
731.815
745.651
763.003
783.524
806.43
829.907
851.265
866.391
868.017
858.863
900.087
633.517
633.357
640.808
648.577
652.329
651.204
648.027
645.577
645.163
647.184
651.803
659.214
669.654
683.323
700.328
720.326
742.484
765.019
785.324
800.643
809.829
816.733
860.988
570.952
569.334
576.342
583.628
587.274
586.285
583.533
581.665
581.778
584.153
588.938
596.359
606.688
620.161
636.861
656.465
678.11
700.175
720.391
736.469
749.912
764.715
807.531
508.711
505.002
510.78
517.498
521.105
520.367
518.127
516.907
517.58
520.313
525.252
532.666
542.879
556.165
572.594
591.885
613.22
635.109
655.569
672.202
686.382
701.146
732.879
447.313
440.773
444.058
450.085
453.934
453.694
452.09
451.535
452.725
455.74
460.744
468.057
478.081
491.183
507.476
526.587
547.746
569.609
590.359
607.3
619.935
629.826
633.885
302.769
302.759
302.561
302.359
302.226
302.11
301.992
301.878
301.77
301.672
301.584
301.509
301.449
301.407
301.381
301.367
301.362
301.359
301.353
302.713
302.703
302.492
302.286
302.161
302.048
301.929
301.815
301.707
301.609
301.522
301.447
301.388
301.346
301.319
301.306
301.301
301.299
301.292
302.659
302.641
302.409
302.199
302.086
301.977
301.86
301.748
301.642
301.545
301.458
301.382
301.323
301.281
301.255
301.243
301.239
301.237
301.23
302.608
302.57
302.293
302.086
302
301.899
301.786
301.678
301.573
301.478
301.392
301.315
301.255
301.213
301.188
301.177
301.174
301.173
301.167
302.559
302.492
302.137
301.941
301.905
301.814
301.707
301.604
301.502
301.408
301.323
301.244
301.184
301.142
301.118
301.109
301.108
301.108
301.102
302.504
302.364
301.928
301.757
301.801
301.72
301.623
301.525
301.427
301.336
301.252
301.17
301.109
301.068
301.045
301.038
301.04
301.042
301.036
302.453
302.122
301.622
301.538
301.688
301.618
301.534
301.443
301.349
301.262
301.179
301.092
301.029
300.989
300.968
300.965
300.97
300.974
300.969
302.454
301.76
301.166
301.31
301.574
301.509
301.44
301.356
301.266
301.182
301.102
301.009
300.946
300.907
300.887
300.889
300.897
300.903
300.9
353.055
341.74
339.327
344.308
348.874
349.276
348.426
348.761
350.618
353.939
358.915
365.92
375.427
387.946
403.815
422.924
444.448
467.065
488.763
506.089
514.09
505.456
428.432
233.378
216.592
200.378
198.298
202.19
202.113
201.306
202.762
205.78
209.835
215.211
222.439
232.065
244.416
259.608
277.849
298.885
322.885
347.404
367.232
376.555
371.567
347.534
129.33
103.594
70.4494
60.6902
63.643
63.3065
62.0442
63.0728
65.2018
67.7689
70.8283
75.0329
81.5525
92.0426
107.397
126.424
150.756
181.652
214.438
239.591
256.427
267.801
276.686
53.3629
21.9266
5.39323
4.89288
5.94743
5.43807
4.85026
4.9474
5.3518
5.89125
6.49259
7.33318
8.67534
10.825
13.9148
18.4601
27.7792
48.1053
81.3305
113.727
143.112
168.217
186.049
1.30025
0.306979
0.334692
0.446291
0.440655
0.452372
0.45259
0.444109
0.436369
0.433299
0.437406
0.450852
0.475454
0.525934
0.622291
0.76616
0.975455
2.22964
7.43252
17.8705
36.6048
64.3775
91.0489
0.29277
0.203673
0.237638
0.280872
0.29083
0.297775
0.300215
0.298148
0.295996
0.296882
0.303984
0.31938
0.339525
0.360077
0.418896
0.564192
0.707309
0.726176
0.772599
0.882449
1.3065
7.09119
22.3528
0.13894
0.127761
0.124412
0.13355
0.139322
0.143657
0.146426
0.147231
0.147953
0.150737
0.157745
0.170427
0.183435
0.182517
0.205469
0.278053
0.349424
0.373011
0.376052
0.312076
0.109228
-0.0920973
0.042714
-0.022081
-0.0285344
-0.0246676
-0.0177083
-0.0128009
-0.00897253
-0.00599818
-0.00390232
-0.00179776
0.00185255
0.00822941
0.0178822
0.0262482
0.0190082
0.00909961
0.0277198
0.0558409
0.0562134
-0.000662168
-0.128091
-0.279801
-0.3685
-0.370851
-0.174968
-0.173997
-0.170562
-0.167637
-0.164111
-0.160766
-0.157665
-0.154897
-0.152055
-0.148245
-0.142703
-0.135361
-0.130208
-0.133415
-0.151275
-0.156894
-0.159733
-0.183937
-0.230802
-0.357263
-0.517805
-0.607566
-0.590025
-0.326293
-0.324005
-0.321169
-0.318659
-0.315763
-0.312656
-0.309463
-0.306302
-0.303064
-0.299326
-0.294701
-0.289265
-0.285662
-0.285846
-0.29576
-0.303398
-0.317754
-0.347454
-0.390576
-0.484366
-0.604379
-0.676611
-0.668207
-0.477756
-0.475577
-0.472972
-0.470649
-0.467933
-0.464862
-0.461523
-0.45802
-0.454371
-0.450455
-0.446201
-0.441778
-0.438715
-0.437284
-0.442188
-0.449021
-0.461638
-0.48674
-0.533411
-0.597743
-0.657894
-0.688328
-0.658982
-0.629627
-0.627807
-0.625578
-0.623339
-0.620634
-0.617487
-0.613949
-0.6101
-0.605999
-0.601687
-0.597305
-0.592567
-0.589042
-0.586412
-0.587662
-0.59149
-0.5997
-0.617215
-0.653834
-0.702034
-0.742751
-0.750707
-0.71371
-0.782335
-0.780899
-0.778919
-0.776679
-0.773895
-0.770587
-0.766794
-0.762569
-0.757971
-0.753069
-0.747954
-0.742777
-0.738084
-0.734261
-0.732399
-0.732704
-0.735975
-0.744471
-0.760888
-0.783919
-0.80517
-0.809618
-0.78926
-0.935968
-0.934793
-0.932952
-0.930665
-0.927745
-0.924217
-0.920111
-0.915466
-0.910329
-0.904764
-0.89886
-0.892769
-0.886787
-0.881264
-0.876709
-0.873465
-0.872079
-0.8734
-0.877568
-0.882232
-0.881898
-0.869713
-0.842738
-1.09054
-1.08951
-1.08772
-1.08534
-1.08224
-1.07845
-1.07398
-1.06887
-1.06315
-1.05686
-1.05008
-1.0429
-1.03549
-1.02806
-1.02086
-1.01407
-1.00784
-1.00229
-0.99693
-0.989955
-0.978242
-0.957827
-0.925951
-1.24606
-1.24508
-1.24328
-1.24077
-1.23746
-1.23337
-1.22851
-1.2229
-1.21656
-1.20951
-1.20178
-1.19343
-1.18453
-1.17517
-1.16544
-1.15536
-1.14486
-1.13371
-1.12116
-1.10581
-1.08567
-1.05859
-1.02323
-1.40252
-1.40155
-1.39969
-1.39702
-1.39348
-1.38908
-1.38382
-1.37769
-1.37071
-1.36288
-1.35419
-1.34465
-1.33427
-1.32305
-1.31097
-1.29794
-1.28376
-1.26807
-1.25021
-1.22915
-1.20358
-1.17216
-1.13396
-1.55994
-1.55894
-1.557
-1.55416
-1.55039
-1.54568
-1.54001
-1.53337
-1.52576
-1.51715
-1.50752
-1.49684
-1.48505
-1.4721
-1.45791
-1.44229
-1.42501
-1.40569
-1.38372
-1.35836
-1.32871
-1.2939
-1.25334
-1.71836
-1.71732
-1.71527
-1.71228
-1.70827
-1.70325
-1.69719
-1.69007
-1.68186
-1.67252
-1.662
-1.65025
-1.63717
-1.62267
-1.60661
-1.58879
-1.56895
-1.54671
-1.52158
-1.49296
-1.46024
-1.42279
-1.3802
-1.8778
-1.87672
-1.87457
-1.87142
-1.8672
-1.86189
-1.85546
-1.84789
-1.83913
-1.82912
-1.8178
-1.80509
-1.79086
-1.77501
-1.75736
-1.7377
-1.71576
-1.6912
-1.66359
-1.63247
-1.59735
-1.55776
-1.51338
-2.0383
-2.03718
-2.03494
-2.03165
-2.02724
-2.02167
-2.01492
-2.00695
-1.9977
-1.98711
-1.97509
-1.96154
-1.94634
-1.92934
-1.91037
-1.8892
-1.86558
-1.83919
-1.80965
-1.77658
-1.73957
-1.69824
-1.65229
-2.19989
-2.19876
-2.19643
-2.19303
-2.18844
-2.18266
-2.17564
-2.16733
-2.15767
-2.14659
-2.13398
-2.11974
-2.10373
-2.08581
-2.06578
-2.04342
-2.01849
-1.99068
-1.95966
-1.92509
-1.88661
-1.84386
-1.79657
-2.36263
-2.36148
-2.35909
-2.35559
-2.35088
-2.34492
-2.33768
-2.3291
-2.31912
-2.30765
-2.29458
-2.2798
-2.26317
-2.24453
-2.2237
-2.20046
-2.17455
-2.14569
-2.11359
-2.0779
-2.0383
-1.99447
-1.94607
-2.52655
-2.52538
-2.52294
-2.51939
-2.51457
-2.50849
-2.50109
-2.49232
-2.4821
-2.47035
-2.45696
-2.4418
-2.42474
-2.4056
-2.38421
-2.36035
-2.33377
-2.30422
-2.27138
-2.23494
-2.19458
-2.14999
-2.10078
-2.69166
-2.69049
-2.68801
-2.68443
-2.67955
-2.6734
-2.66591
-2.65702
-2.64667
-2.63476
-2.62118
-2.6058
-2.58847
-2.56904
-2.54734
-2.52313
-2.49618
-2.46623
-2.43301
-2.39617
-2.35538
-2.31044
-2.26077
-2.85801
-2.85683
-2.85431
-2.85073
-2.84584
-2.83967
-2.83216
-2.82324
-2.81285
-2.80089
-2.78725
-2.77181
-2.7544
-2.73489
-2.71309
-2.68879
-2.66173
-2.63169
-2.59849
-2.56155
-2.52062
-2.4759
-2.42609
-3.02558
-3.02443
-3.02181
-3.01829
-3.01344
-3.00731
-2.99984
-2.99098
-2.98065
-2.96876
-2.9552
-2.93984
-2.92253
-2.90313
-2.88146
-2.85732
-2.83041
-2.80046
-2.76789
-2.73118
-2.69063
-2.646
-2.59664
-3.19434
-3.19321
-3.19055
-3.18712
-3.18235
-3.17632
-3.16897
-3.16024
-3.15006
-3.13834
-3.12501
-3.10988
-3.09284
-3.07373
-3.0524
-3.02873
-3.0023
-2.97299
-2.94064
-2.9047
-2.86494
-2.82105
-2.77256
-3.36424
-3.36309
-3.36054
-3.35726
-3.35256
-3.34668
-3.3395
-3.33099
-3.32105
-3.3096
-3.29667
-3.28191
-3.2653
-3.24669
-3.22592
-3.20283
-3.17714
-3.14865
-3.11712
-3.08219
-3.04356
-3.00091
-2.95379
-3.53528
-3.53416
-3.53176
-3.52852
-3.52401
-3.51833
-3.51141
-3.5032
-3.49361
-3.48258
-3.47004
-3.45582
-3.4398
-3.42187
-3.40186
-3.3796
-3.35488
-3.32746
-3.29711
-3.26353
-3.2264
-3.18543
-3.1402
-3.70741
-3.70635
-3.70407
-3.70096
-3.69666
-3.69124
-3.68464
-3.67679
-3.66765
-3.65712
-3.64513
-3.63156
-3.61629
-3.59919
-3.58013
-3.55893
-3.53539
-3.5093
-3.48043
-3.44852
-3.41327
-3.37439
-3.33155
-3.88058
-3.87959
-3.87744
-3.87453
-3.87046
-3.86535
-3.85912
-3.85172
-3.84309
-3.83316
-3.82184
-3.80905
-3.79466
-3.77856
-3.76061
-3.74066
-3.71853
-3.69402
-3.6669
-3.63695
-3.60392
-3.56754
-3.52752
-4.05474
-4.05386
-4.05183
-4.04916
-4.04535
-4.04061
-4.0348
-4.02791
-4.01988
-4.01063
-4.0001
-3.98819
-3.97482
-3.95986
-3.94319
-3.92467
-3.90415
-3.88142
-3.85631
-3.82861
-3.79809
-3.76454
-3.72773
-4.2298
-4.22905
-4.22715
-4.22477
-4.22126
-4.21691
-4.21159
-4.20528
-4.19791
-4.18943
-4.17978
-4.16887
-4.15662
-4.14293
-4.12769
-4.11077
-4.09202
-4.07129
-4.0484
-4.02318
-3.99545
-3.96503
-3.93175
-4.40565
-4.40503
-4.40326
-4.40124
-4.39801
-4.39412
-4.38933
-4.38364
-4.37701
-4.36937
-4.36068
-4.35086
-4.33984
-4.32754
-4.31385
-4.29867
-4.28186
-4.26329
-4.24282
-4.22029
-4.19557
-4.16854
-4.13905
-4.58223
-4.58175
-4.5801
-4.57849
-4.57556
-4.57216
-4.56795
-4.56293
-4.55708
-4.55036
-4.5427
-4.53405
-4.52436
-4.51355
-4.50153
-4.48821
-4.47347
-4.45722
-4.43933
-4.41968
-4.39816
-4.37471
-4.34924
-4.75963
-4.75937
-4.75781
-4.75667
-4.75401
-4.75116
-4.74755
-4.74326
-4.73825
-4.73249
-4.72593
-4.71854
-4.71026
-4.70104
-4.69078
-4.67943
-4.6669
-4.6531
-4.63793
-4.62133
-4.6032
-4.58352
-4.56225
-4.93782
-4.93783
-4.93636
-4.93569
-4.93328
-4.93107
-4.92809
-4.92455
-4.92042
-4.91567
-4.91028
-4.9042
-4.8974
-4.88983
-4.88144
-4.87215
-4.86193
-4.85069
-4.83839
-4.82496
-4.81037
-4.79463
-4.77773
-5.1162
-5.11644
-5.11511
-5.11484
-5.11268
-5.11122
-5.10881
-5.10605
-5.10282
-5.09913
-5.09492
-5.0902
-5.08492
-5.07905
-5.07255
-5.06539
-5.05752
-5.04891
-5.03952
-5.02933
-5.01835
-5.0066
-4.99415
-5.29416
-5.29453
-5.29345
-5.29342
-5.29172
-5.29079
-5.28907
-5.28709
-5.28478
-5.28214
-5.27912
-5.27576
-5.27201
-5.26785
-5.26326
-5.25822
-5.2527
-5.24671
-5.24022
-5.23325
-5.22582
-5.218
-5.2099
-5.47218
-5.47263
-5.47192
-5.47197
-5.47102
-5.47041
-5.4694
-5.46823
-5.46684
-5.46526
-5.46347
-5.46148
-5.45927
-5.45682
-5.45415
-5.45125
-5.44812
-5.44476
-5.4412
-5.43746
-5.43362
-5.42974
-5.42597
-5.65246
-5.65322
-5.6529
-5.65304
-5.6528
-5.65262
-5.65235
-5.65201
-5.65162
-5.65117
-5.65067
-5.65014
-5.64956
-5.64896
-5.64834
-5.64772
-5.64714
-5.64662
-5.64622
-5.64599
-5.64603
-5.64645
-5.64743
281.446
298.355
306.755
302.864
314.137
303.917
295.885
293.597
276.3
275.085
281.172
296.298
194.811
202.263
214.448
234.291
110.231
123.354
137.203
152.838
35.8681
45.6064
57.274
70.0164
0.675802
2.52992
6.93199
13.9431
-0.346849
-0.315428
-0.250639
-0.139074
-0.503508
-0.439209
-0.379015
-0.319873
-0.58274
-0.517188
-0.452649
-0.39057
-0.605533
-0.560863
-0.511066
-0.460767
-0.663427
-0.62803
-0.592177
-0.555754
-0.759483
-0.735352
-0.704204
-0.667124
-0.81259
-0.790513
-0.764751
-0.737073
-0.894902
-0.872782
-0.848391
-0.82223
-0.991607
-0.969691
-0.946018
-0.920742
-1.10123
-1.07882
-1.05493
-1.02971
-1.2195
-1.19654
-1.17228
-1.14681
-1.34521
-1.32161
-1.29682
-1.2709
-1.47726
-1.45299
-1.42758
-1.40109
-1.61508
-1.59012
-1.56405
-1.53692
-1.75834
-1.73273
-1.706
-1.67819
-1.90696
-1.88075
-1.8534
-1.82491
-2.06098
-2.03428
-2.0064
-1.97731
-2.22053
-2.19354
-2.16532
-2.13585
-2.38573
-2.35865
-2.33033
-2.30072
-2.55659
-2.52969
-2.50152
-2.47204
-2.7332
-2.70675
-2.67904
-2.65001
-2.91556
-2.88987
-2.86295
-2.83476
-3.10354
-3.07893
-3.05316
-3.02619
-3.2969
-3.27366
-3.24938
-3.22401
-3.49525
-3.47367
-3.45116
-3.4277
-3.69817
-3.67844
-3.65793
-3.63662
-3.90514
-3.88744
-3.86908
-3.85008
-4.1156
-4.10004
-4.08395
-4.06737
-4.32909
-4.31577
-4.30204
-4.28794
-4.54551
-4.53451
-4.52323
-4.5117
-4.76456
-4.75595
-4.74719
-4.73831
-4.98464
-4.97848
-4.97226
-4.96602
-5.20391
-5.2001
-5.19634
-5.19266
-5.42343
-5.42195
-5.42063
-5.41951
-5.64872
-5.64981
-5.6512
-5.65293
302.684
301.412
300.459
301.049
301.386
301.322
301.288
301.218
301.14
301.068
300.995
300.89
300.809
300.773
300.753
300.765
300.779
300.791
300.792
292.99
299.101
299.992
300.886
301.26
301.15
301.044
300.969
300.941
300.855
300.753
300.685
300.597
300.563
300.54
300.589
300.613
300.634
300.644
301.653
295.38
301.978
301.703
301.457
300.935
300.843
300.785
300.734
300.692
300.591
300.46
300.282
300.284
300.267
300.4
300.423
300.454
300.494
254.773
270.873
299.859
301.261
298.493
300.27
300.684
300.549
300.435
300.544
300.174
300.107
299.817
299.931
299.873
300.074
300.135
300.212
300.376
178.509
209.309
242.761
257.655
228.079
257.9
279.97
283.006
272.003
279.099
287.196
295.119
298.395
298.721
299.25
299.536
299.706
299.993
300.294
94.4821
124.54
150.929
176.08
166.362
188.299
216.7
197.402
177.205
203.164
193.007
196.86
248.731
263.104
286.23
296.781
299.161
299.322
299.986
29.3432
47.4506
65.9333
87.1977
99.1129
109.708
118.035
117.719
114.194
121.177
124.697
139.075
180.891
186.517
208.918
260.743
295.367
293.963
300.358
0.143032
3.53977
11.364
20.8211
29.8103
36.2122
40.6205
43.8874
45.3279
47.1051
53.8369
69.3096
94.1146
125.572
176.531
237.391
266.402
277.655
304.784
-0.23742
-0.190114
0.0138964
0.125169
0.268098
1.12981
2.15947
2.94653
3.53544
4.33885
6.2099
11.2994
22.9631
55.8186
112.862
196.34
274.193
307.423
343.417
-0.296038
-0.194501
-0.0815751
0.0488835
0.200035
0.34758
0.448667
0.493103
0.521475
0.536635
0.548351
0.611681
1.01419
4.15688
35.4725
133.929
317.544
501.619
629.792
-0.382453
-0.297405
-0.199379
-0.0833517
0.0516834
0.190137
0.288196
0.355289
0.397821
0.410672
0.415413
0.456748
0.580201
1.04686
4.3254
41.8161
288.473
583.523
814.887
-0.492712
-0.402368
-0.30454
-0.198257
-0.0867491
0.0251067
0.128079
0.213423
0.274504
0.3023
0.320075
0.371274
0.487331
0.694648
1.67166
10.5612
187.063
494.689
703.941
-0.602542
-0.514419
-0.42423
-0.3248
-0.214775
-0.105726
-0.00637394
0.0788313
0.146414
0.19269
0.233023
0.300712
0.417412
0.589417
0.861726
3.05534
69.7549
334.708
481.939
-0.687287
-0.609391
-0.523864
-0.429124
-0.328578
-0.228878
-0.135692
-0.0529595
0.0209941
0.0859786
0.152132
0.234789
0.356581
0.49399
0.60022
0.793427
8.28584
187.756
263.345
-0.775041
-0.700705
-0.619288
-0.531645
-0.440519
-0.348821
-0.259199
-0.176295
-0.0982296
-0.0218312
0.0618052
0.162737
0.28503
0.391103
0.4993
0.397048
-0.561154
84.0084
114.929
-0.875348
-0.803296
-0.725128
-0.642313
-0.556503
-0.46909
-0.382232
-0.298856
-0.21866
-0.137663
-0.04893
0.0557435
0.177947
0.236439
0.312184
0.314119
1.54355
37.304
57.4239
-0.984965
-0.914569
-0.838683
-0.758615
-0.67546
-0.590278
-0.504845
-0.421674
-0.341923
-0.261931
-0.176576
-0.0820067
0.0230645
0.0513276
0.206867
-0.488317
11.5804
36.2903
46.0302
-1.10194
-1.03221
-0.957381
-0.878576
-0.796662
-0.712479
-0.627669
-0.544391
-0.466588
-0.38986
-0.309636
-0.221978
-0.12133
-0.0301351
0.167755
0.801212
17.8833
38.1411
41.7454
-1.2255
-1.15561
-1.08077
-1.00199
-0.920018
-0.835691
-0.751267
-0.664779
-0.588723
-0.514774
-0.438791
-0.354638
-0.258934
-0.135005
-0.0223377
0.551613
11.0304
33.5628
36.3333
-1.35488
-1.28419
-1.20852
-1.12865
-1.04535
-0.959038
-0.871268
-0.784612
-0.704948
-0.630541
-0.557436
-0.480061
-0.397677
-0.305176
-0.175829
-0.358615
0.351076
18.1146
22.2128
-1.48969
-1.41768
-1.34054
-1.25857
-1.17294
-1.08326
-0.9909
-0.898787
-0.812028
-0.733672
-0.660822
-0.59107
-0.514389
-0.423929
-0.269981
-0.18303
-0.450143
3.91648
20.2383
-1.62979
-1.55599
-1.47655
-1.39176
-1.30193
-1.20887
-1.10986
-1.00833
-0.909733
-0.819821
-0.744936
-0.680407
-0.603877
-0.483185
-0.271806
-0.0290243
-0.178726
-1.61799
29.3241
-1.77531
-1.69947
-1.61776
-1.52874
-1.43396
-1.3381
-1.22973
-1.11604
-1.00203
-0.897979
-0.811624
-0.746014
-0.673044
-0.523867
-0.265664
-0.050246
0.198397
12.0871
16.1768
-1.92652
-1.84828
-1.76565
-1.67292
-1.57398
-1.46822
-1.35155
-1.22485
-1.0923
-0.971332
-0.868195
-0.791522
-0.727505
-0.621574
-0.523562
-0.759498
-1.57164
2.70714
5.14192
-2.0844
-2.00529
-1.91864
-1.82289
-1.71892
-1.6047
-1.47774
-1.34133
-1.18276
-1.04799
-0.933733
-0.848296
-0.802267
-0.805244
-0.851865
-0.803594
0.173782
4.02636
3.87282
-2.24893
-2.16871
-2.07972
-1.98077
-1.8715
-1.74896
-1.60978
-1.45594
-1.29115
-1.13471
-1.01842
-0.943347
-0.89449
-0.868075
-0.730845
-0.239414
0.69909
1.67611
16.5488
-2.42035
-2.33974
-2.24964
-2.14847
-2.03503
-1.90504
-1.75406
-1.58511
-1.40802
-1.23003
-1.11021
-1.06619
-1.003
-0.913128
-0.692614
-0.860679
0.184246
1.41708
43.1055
-2.59903
-2.51911
-2.42926
-2.32738
-2.21161
-2.07616
-1.91496
-1.73261
-1.54163
-1.34404
-1.20526
-1.2138
-1.14637
-1.02714
-0.778725
-1.64168
1.76536
17.7314
152.78
-2.78518
-2.70731
-2.61939
-2.51907
-2.40386
-2.26619
-2.09801
-1.90531
-1.70482
-1.49512
-1.33611
-1.35062
-1.47484
-1.50102
-3.23019
-3.23627
18.8461
78.9778
336.736
-2.9788
-2.90443
-2.82047
-2.72475
-2.61437
-2.48013
-2.31357
-2.11691
-1.90908
-1.68456
-1.50276
-1.4666
-1.66729
-10.1117
-6.7793
6.59693
44.1988
124.496
385.774
-3.17952
-3.11002
-3.03214
-2.94433
-2.84406
-2.72089
-2.56724
-2.38038
-2.17096
-1.91546
-1.63139
-1.54264
-1.64811
1.68572
1.54025
-1.32992
21.7686
52.4252
309.538
-3.3867
-3.32313
-3.25295
-3.17539
-3.08941
-2.98621
-2.85473
-2.69276
-2.51183
-2.29898
-2.09186
-2.9662
-2.73764
-4.90357
-6.36936
-6.32609
-4.80631
15.3983
216.339
-3.59952
-3.54261
-3.48102
-3.41489
-3.34519
-3.26745
-3.16731
-3.03844
-2.89549
-2.80458
-3.14941
-5.45925
-6.00259
-6.68882
-7.43428
-8.17944
-11.7792
-14.1784
93.9019
-3.81713
-3.76718
-3.71432
-3.65939
-3.60539
-3.55216
-3.49092
-3.41683
-3.3404
-3.35369
-3.95487
-6.89551
-6.66371
-6.8322
-7.69193
-9.97724
-11.3362
-21.5998
21.3495
-4.03869
-3.99576
-3.95125
-3.90656
-3.86546
-3.83091
-3.80184
-3.78948
-3.80822
-3.9934
-4.78583
-7.83067
-6.55635
-6.35964
-7.25562
-10.2963
-8.02003
-5.75155
2.781
-4.26366
-4.22775
-4.19124
-4.15598
-4.1251
-4.10409
-4.09289
-4.10613
-4.11557
-4.35725
-5.0692
-7.85489
-5.92767
-5.45849
-5.89408
-6.81457
-5.96767
-3.20835
-1.50956
-4.49198
-4.4632
-4.43462
-4.40829
-4.38617
-4.37633
-4.37524
-4.40017
-4.39233
-4.47977
-3.7004
-6.53034
-5.53623
-4.86322
-4.66356
-4.16561
-4.82927
-4.24707
-3.17338
-4.72325
-4.70184
-4.68148
-4.66423
-4.65154
-4.6531
-4.65896
-4.70672
-4.75536
-4.80426
-4.58893
-6.2347
-5.79107
-4.72492
-4.54469
-3.70591
-4.67443
-5.51366
-4.62805
-4.95559
-4.94159
-4.92964
-4.92184
-4.92015
-4.93418
-4.94824
-5.02
-5.09803
-5.13167
-5.96719
-7.46652
-7.29257
-5.26288
-5.15089
-4.45226
-5.10202
-6.66293
-5.76084
-5.18673
-5.17981
-5.17587
-5.17712
-5.18654
-5.21238
-5.24268
-5.33358
-5.40925
-5.33817
-6.42182
-8.74398
-9.04827
-6.83373
-6.16521
-5.57461
-5.84223
-7.00874
-6.25555
-5.41812
-5.41818
-5.42187
-5.43146
-5.45051
-5.48566
-5.53583
-5.64521
-5.77144
-5.73115
-6.50574
-2.91718
-21.5904
-23.8301
-7.89661
-6.75763
-6.49987
-6.72358
-6.15513
-5.65652
-5.66429
-5.67628
-5.69468
-5.72288
-5.7664
-5.83016
-5.95243
-6.11131
-6.39887
-8.28057
-8.82801
-27.3471
-38.1504
-10.033
-8.05777
-6.81198
-6.23953
-5.94383
)
;

boundaryField
{
    leftWall
    {
        type            calculated;
        value           nonuniform List<scalar> 
50
(
878.645
818.757
757.758
695.906
633.517
570.952
508.711
447.313
353.055
233.378
129.33
53.3629
1.30025
0.29277
0.13894
-0.022081
-0.174968
-0.326293
-0.477756
-0.629627
-0.782335
-0.935968
-1.09054
-1.24606
-1.40252
-1.55994
-1.71836
-1.8778
-2.0383
-2.19989
-2.36263
-2.52655
-2.69166
-2.85801
-3.02558
-3.19434
-3.36424
-3.53528
-3.70741
-3.88058
-4.05474
-4.2298
-4.40565
-4.58223
-4.75963
-4.93782
-5.1162
-5.29416
-5.47218
-5.65246
)
;
    }
    rightWall
    {
        type            calculated;
        value           nonuniform List<scalar> 
50
(
301.353
301.292
301.23
301.167
301.102
301.036
300.969
300.9
300.792
300.644
300.494
300.376
300.294
299.986
300.358
304.784
343.417
629.792
814.887
703.941
481.939
263.345
114.929
57.4239
46.0302
41.7454
36.3333
22.2128
20.2383
29.3241
16.1768
5.14192
3.87282
16.5488
43.1055
152.78
336.736
385.774
309.538
216.339
93.9019
21.3495
2.781
-1.50956
-3.17338
-4.62805
-5.76084
-6.25555
-6.15513
-5.94383
)
;
    }
    lowerWall
    {
        type            calculated;
        value           nonuniform List<scalar> 
62
(
908.074
910.047
918.242
926.785
930.645
929.23
925.064
921.236
919.545
920.663
924.818
932.188
943.061
957.785
976.525
999.45
1026.03
1053.8
1076.26
1087.37
1064.99
1055
1100.91
1071.48
1003.89
945.398
900.087
860.988
807.531
732.879
633.885
344.043
360.952
356.498
317.623
302.769
302.713
302.659
302.608
302.559
302.504
302.453
302.454
302.799
302.789
302.591
302.388
302.255
302.139
302.021
301.907
301.799
301.701
301.613
301.538
301.479
301.437
301.41
301.396
301.391
301.389
301.382
)
;
    }
    atmosphere
    {
        type            calculated;
        value           nonuniform List<scalar> 
46
(
-5.74478
-5.74612
-5.74589
-5.74611
-5.7462
-5.74631
-5.74643
-5.74656
-5.74671
-5.7469
-5.74712
-5.7474
-5.74774
-5.74817
-5.74872
-5.7494
-5.75027
-5.75138
-5.75279
-5.7546
-5.7569
-5.75986
-5.76366
-5.76725
-5.7699
-5.77293
-5.77639
-5.78304
-5.79555
-5.81272
-5.8366
-5.87033
-5.91858
-5.98462
-6.10964
-6.16736
-6.44292
-7.53205
-8.25434
-92.8718
-131.699
-8.91571
-7.16601
-6.36144
-6.24203
-5.87539
)
;
    }
    defaultFaces
    {
        type            empty;
    }
}


// ************************************************************************* //
