/*--------------------------------*- C++ -*----------------------------------*\
| =========                 |                                                 |
| \\      /  F ield         | OpenFOAM: The Open Source CFD Toolbox           |
|  \\    /   O peration     | Version:  5.x                                   |
|   \\  /    A nd           | Web:      www.OpenFOAM.org                      |
|    \\/     M anipulation  |                                                 |
\*---------------------------------------------------------------------------*/
FoamFile
{
    version     2.0;
    format      ascii;
    class       volScalarField;
    location    "0.4";
    object      p_rgh;
}
// * * * * * * * * * * * * * * * * * * * * * * * * * * * * * * * * * * * * * //

dimensions      [1 -1 -2 0 0 0 0];

internalField   nonuniform List<scalar> 
2268
(
908.074
910.047
918.242
926.785
930.645
929.23
925.064
921.236
919.545
920.663
924.818
932.188
943.061
957.785
976.525
999.45
1026.03
1053.8
1076.26
1087.37
1064.99
1055
1100.91
907.045
908.667
916.935
925.387
929.247
927.855
923.792
920.112
918.56
919.78
923.989
931.351
942.029
956.189
974.103
996.035
1021.79
1049.92
1075.02
1089.92
1068.56
1038.91
1092.18
904.905
906.169
914.331
922.625
926.472
925.136
921.278
917.889
916.61
918.026
922.339
929.71
940.325
954.439
972.051
993.193
1017.2
1042.62
1066.37
1082.31
1076.95
1046.71
1092.21
901.912
902.621
910.52
918.584
922.399
921.157
917.604
914.636
913.748
915.44
919.895
927.286
937.82
951.656
969.009
989.529
1012.44
1035.91
1057.27
1072.4
1074.02
1064.87
1104.97
898.381
898.221
905.673
913.441
917.193
916.068
912.892
910.441
910.027
912.048
916.667
924.079
934.518
948.187
965.192
985.19
1007.35
1029.88
1050.19
1065.51
1074.69
1081.6
1125.38
894.675
893.057
900.065
907.351
910.997
910.008
907.256
905.388
905.501
907.876
912.661
920.082
930.411
943.884
960.584
980.188
1001.83
1023.9
1044.11
1060.19
1073.63
1088.44
1131.15
891.293
887.583
893.362
900.08
903.687
902.949
900.709
899.489
900.162
902.894
907.834
915.248
925.461
938.747
955.176
974.467
995.802
1017.69
1038.15
1054.78
1068.96
1083.73
1115.46
888.754
882.214
885.498
891.525
895.374
895.135
893.53
892.975
894.165
897.18
902.184
909.498
919.521
932.623
948.916
968.027
989.186
1011.05
1031.8
1048.74
1061.38
1071.27
1075.33
302.799
302.789
302.591
302.388
302.255
302.139
302.021
301.907
301.799
301.701
301.613
301.538
301.479
301.437
301.41
301.396
301.391
301.389
301.382
302.801
302.791
302.581
302.374
302.249
302.136
302.018
301.903
301.796
301.698
301.61
301.535
301.476
301.434
301.407
301.394
301.39
301.387
301.38
302.806
302.788
302.556
302.346
302.233
302.124
302.007
301.895
301.789
301.692
301.605
301.529
301.47
301.428
301.402
301.39
301.386
301.384
301.377
302.814
302.78
302.502
302.292
302.206
302.105
301.992
301.884
301.779
301.684
301.598
301.521
301.461
301.419
301.394
301.383
301.38
301.379
301.373
302.827
302.772
302.43
302.21
302.17
302.079
301.972
301.868
301.767
301.673
301.588
301.509
301.448
301.407
301.383
301.374
301.373
301.373
301.367
302.858
302.716
302.312
302.089
302.124
302.044
301.947
301.849
301.75
301.66
301.576
301.494
301.432
301.392
301.368
301.362
301.364
301.365
301.36
302.847
302.631
302.149
301.938
302.071
302
301.916
301.826
301.732
301.644
301.562
301.474
301.412
301.372
301.35
301.348
301.353
301.356
301.352
302.895
302.588
302.142
301.777
302.016
301.951
301.882
301.798
301.707
301.623
301.543
301.45
301.388
301.349
301.328
301.33
301.339
301.345
301.342
886.522
875.207
872.787
877.762
882.33
882.736
881.888
882.225
884.084
887.406
892.382
899.387
908.894
921.413
937.282
956.391
977.915
1000.53
1022.23
1039.56
1047.56
1038.92
961.899
892.04
875.248
858.927
856.788
860.707
860.667
859.89
861.369
864.403
868.469
873.853
881.089
890.721
903.076
918.269
936.511
957.546
981.547
1006.07
1025.89
1035.22
1030.23
1006.2
913.187
858.006
692.909
645.745
668.007
671.553
669.624
676.846
689.563
703.502
718.36
737.124
763.383
799.8
844.982
899.219
934.612
965.508
998.294
1023.45
1040.28
1051.66
1060.54
731.812
328.804
75.2172
67.8898
84.6609
76.2128
67.1025
69.0993
75.7565
84.3321
93.7821
106.954
127.928
161.271
208.607
275.258
408.864
640.606
928.974
1022.78
1052.16
1077.27
1095.1
10.7875
1.34122
1.36894
1.48054
1.4749
1.48662
1.48684
1.47835
1.47061
1.46754
1.47165
1.4851
1.5097
1.56018
1.65663
1.80248
4.43035
29.0013
117.985
298.231
615.879
1021.22
1125.29
1.45221
1.36311
1.39708
1.44031
1.45027
1.45722
1.45965
1.45759
1.45544
1.45633
1.46346
1.47883
1.49897
1.51959
1.68107
2.13764
2.17224
2.19504
2.24147
2.66542
18.4459
151.292
444.436
1.42357
1.4124
1.40905
1.41818
1.42396
1.42829
1.43106
1.43187
1.43259
1.43542
1.44264
1.45525
1.46816
1.46731
1.86959
2.47232
2.40828
2.19029
2.55266
2.53563
1.98498
1.39732
1.7986
1.38775
1.38129
1.38516
1.39212
1.39703
1.40086
1.40383
1.40593
1.40803
1.41175
1.41834
1.428
1.43618
1.42894
1.74362
2.10851
2.3452
2.36975
2.25253
2.37719
2.05662
1.13119
1.14192
1.36006
1.36103
1.36446
1.36739
1.37091
1.37426
1.37736
1.38013
1.38297
1.3868
1.39263
1.39983
1.40493
1.40247
1.38463
1.37813
1.4792
1.77735
1.51349
1.37964
1.1489
1.02152
1.03716
1.33393
1.33621
1.33905
1.34156
1.34446
1.34756
1.35076
1.35392
1.35715
1.3609
1.36555
1.37095
1.37489
1.37812
1.36446
1.35682
1.34246
1.31278
1.61585
1.76985
1.41364
1.08344
1.09185
1.30766
1.30984
1.31244
1.31476
1.31748
1.32055
1.32389
1.32739
1.33104
1.33496
1.33921
1.34364
1.34699
1.34823
1.34322
1.33639
1.32377
1.3059
1.63555
1.86606
1.80525
1.42314
1.23433
1.28098
1.2828
1.28503
1.28727
1.28997
1.29312
1.29666
1.30051
1.30461
1.30892
1.3133
1.31804
1.32161
1.3242
1.32295
1.31912
1.31091
1.29339
1.25677
1.33967
1.75185
2.12608
2.17023
1.25347
1.2549
1.25688
1.25912
1.26191
1.26521
1.26901
1.27323
1.27783
1.28273
1.28785
1.29302
1.29772
1.30154
1.3034
1.3031
1.29983
1.29133
1.27491
1.25188
1.23063
1.22618
1.37937
1.22503
1.2262
1.22804
1.23033
1.23325
1.23678
1.24089
1.24553
1.25067
1.25623
1.26214
1.26823
1.27421
1.27973
1.28429
1.28753
1.28892
1.2876
1.28343
1.27876
1.2791
1.29128
1.31826
1.19565
1.19668
1.19847
1.20085
1.20395
1.20774
1.21221
1.21732
1.22304
1.22933
1.23611
1.24329
1.2507
1.25813
1.26533
1.27212
1.27835
1.2839
1.28926
1.29624
1.30795
1.32836
1.36024
1.16533
1.1663
1.16811
1.17062
1.17392
1.17802
1.18287
1.18848
1.19482
1.20188
1.2096
1.21795
1.22685
1.23621
1.24594
1.25602
1.26652
1.27768
1.29022
1.30557
1.32571
1.3528
1.38816
1.13406
1.13503
1.13689
1.13956
1.1431
1.1475
1.15276
1.15889
1.16587
1.1737
1.18239
1.19193
1.20231
1.21353
1.22561
1.23864
1.25282
1.26851
1.28637
1.30743
1.333
1.36442
1.40262
1.10183
1.10283
1.10478
1.10761
1.11138
1.1161
1.12177
1.1284
1.13601
1.14462
1.15425
1.16494
1.17673
1.18967
1.20387
1.21948
1.23676
1.25609
1.27805
1.30342
1.33307
1.36788
1.40843
1.06861
1.06965
1.07169
1.07469
1.07869
1.08372
1.08978
1.0969
1.10511
1.11445
1.12497
1.13672
1.1498
1.1643
1.18036
1.19818
1.21802
1.24026
1.26539
1.29401
1.32673
1.36418
1.40677
1.03436
1.03545
1.03759
1.04074
1.04496
1.05027
1.0567
1.06427
1.07303
1.08304
1.09436
1.10708
1.1213
1.13715
1.1548
1.17446
1.1964
1.22096
1.24857
1.2797
1.31481
1.3544
1.39878
0.999057
1.00018
1.00242
1.0057
1.01012
1.01569
1.02244
1.03041
1.03966
1.05025
1.06227
1.07582
1.09102
1.10801
1.12699
1.14816
1.17177
1.19817
1.22771
1.26078
1.29779
1.33912
1.38507
0.962661
0.963789
0.96612
0.969522
0.974108
0.979889
0.986913
0.995224
1.00488
1.01597
1.02857
1.04281
1.05882
1.07674
1.09677
1.11913
1.14406
1.17187
1.20289
1.23746
1.27595
1.31869
1.36599
0.925114
0.926266
0.92866
0.932152
0.936871
0.942826
0.950068
0.958647
0.968629
0.980101
0.993166
1.00794
1.02457
1.04321
1.06405
1.08729
1.1132
1.14205
1.17416
1.20984
1.24944
1.29328
1.34168
0.886395
0.88756
0.890001
0.893556
0.898372
0.904452
0.911851
0.920623
0.930838
0.942587
0.955979
0.971137
0.988205
1.00735
1.02873
1.05259
1.07917
1.10873
1.14156
1.178
1.21836
1.26295
1.31216
0.846472
0.847643
0.850123
0.853709
0.858583
0.864736
0.872227
0.881112
0.891465
0.903377
0.916959
0.932339
0.949663
0.969091
0.9908
1.01501
1.04196
1.07191
1.10512
1.14197
1.18275
1.2277
1.27737
0.805324
0.806497
0.809019
0.812603
0.81749
0.823658
0.831173
0.840088
0.85048
0.86244
0.876077
0.891524
0.908928
0.928437
0.950238
0.974544
1.0016
1.03164
1.06484
1.10178
1.14271
1.18743
1.23725
0.762946
0.764099
0.766713
0.770237
0.775086
0.781213
0.78868
0.797543
0.807876
0.819768
0.833325
0.848687
0.865995
0.885395
0.907065
0.931207
0.958119
0.988069
1.02063
1.05735
1.09789
1.14252
1.19189
0.719376
0.720514
0.723165
0.7266
0.731371
0.7374
0.744753
0.753482
0.763662
0.775377
0.788711
0.803839
0.820882
0.839993
0.861323
0.884984
0.911423
0.940734
0.973076
1.00902
1.04878
1.09267
1.14116
0.674669
0.675828
0.678377
0.68165
0.686359
0.692238
0.699413
0.707928
0.717865
0.729316
0.742243
0.757
0.773615
0.792226
0.812991
0.836087
0.861775
0.890262
0.921793
0.95672
0.99535
1.03801
1.08512
0.628826
0.629949
0.632352
0.635585
0.6401
0.645774
0.652697
0.660913
0.670497
0.681525
0.69407
0.708292
0.724305
0.742239
0.762247
0.784506
0.809231
0.836644
0.866998
0.900583
0.937704
0.97868
1.02391
0.581893
0.582956
0.585235
0.588338
0.592645
0.598058
0.604666
0.612509
0.621657
0.632184
0.644175
0.657747
0.673016
0.69011
0.709175
0.730378
0.753914
0.779999
0.808869
0.840787
0.876036
0.914908
0.957752
0.53392
0.534903
0.537059
0.539971
0.544041
0.549144
0.555377
0.562777
0.571408
0.581339
0.592654
0.605452
0.619841
0.63594
0.653886
0.673836
0.695968
0.720482
0.747595
0.777543
0.810582
0.846961
0.886981
0.484956
0.485836
0.487864
0.490534
0.494339
0.499084
0.504888
0.511778
0.519812
0.529058
0.53959
0.551498
0.564877
0.579837
0.596502
0.615018
0.635547
0.658269
0.683377
0.711083
0.741605
0.775149
0.81196
0.435084
0.43584
0.437738
0.440112
0.443631
0.447973
0.453294
0.459611
0.466978
0.475455
0.48511
0.49602
0.508271
0.521959
0.537198
0.554119
0.572866
0.593597
0.616483
0.641703
0.66944
0.699852
0.733132
0.384428
0.385052
0.386824
0.388843
0.392067
0.395959
0.40075
0.406439
0.413075
0.420711
0.429405
0.439224
0.450241
0.462542
0.476226
0.491411
0.50822
0.526789
0.547262
0.569787
0.59451
0.621543
0.651026
0.333049
0.333521
0.335178
0.336782
0.339716
0.343113
0.34733
0.352342
0.358191
0.364921
0.37258
0.381224
0.390914
0.401724
0.413743
0.427067
0.441802
0.458057
0.47595
0.4956
0.517112
0.540561
0.566034
0.28084
0.281102
0.282661
0.283802
0.286463
0.289308
0.292916
0.297208
0.302218
0.307981
0.314537
0.321929
0.330207
0.339435
0.349686
0.361037
0.373571
0.387373
0.402536
0.419144
0.437268
0.456946
0.478222
0.22784
0.227835
0.229303
0.229973
0.232381
0.234596
0.237579
0.241117
0.245247
0.249994
0.255389
0.261464
0.268261
0.27583
0.284228
0.29351
0.303737
0.314973
0.327279
0.340708
0.355294
0.371037
0.387939
0.174658
0.174417
0.175752
0.17602
0.17818
0.179644
0.182051
0.184807
0.188035
0.191733
0.195938
0.200661
0.205939
0.211807
0.218304
0.225467
0.233335
0.241947
0.251337
0.261526
0.27251
0.284256
0.296705
0.121896
0.121525
0.122608
0.122637
0.124331
0.125269
0.126982
0.128965
0.131274
0.133913
0.136933
0.140292
0.144043
0.148204
0.152796
0.157838
0.163349
0.169346
0.175835
0.182809
0.190235
0.198054
0.206154
0.069073
0.0686178
0.0693325
0.0692814
0.0702294
0.0708388
0.0718526
0.0730222
0.0744131
0.0759882
0.0777747
0.0797688
0.0819828
0.0844233
0.0870942
0.0899974
0.0931321
0.0964903
0.100052
0.103784
0.107632
0.111509
0.115278
0.0139805
0.0132247
0.013545
0.013407
0.0136461
0.0138232
0.0140975
0.0144313
0.0148266
0.0152727
0.0157685
0.0163075
0.0168835
0.017487
0.0181046
0.018718
0.0193016
0.0198196
0.0202234
0.0204494
0.0204113
0.0199891
0.0190156
814.913
831.822
730.67
428.64
972.798
962.579
954.547
917.145
1060.16
1058.94
1065.03
1080.12
1103.86
1111.31
1123.5
1143.34
1144.48
1157.6
1171.45
1187.06
728.858
928.315
1145.32
1229.42
22.687
69.4032
164.142
310.408
1.19907
1.28623
1.45508
1.72461
1.12431
1.1956
1.26946
1.35094
1.17731
1.24512
1.31673
1.39277
1.3935
1.61754
1.94601
2.26774
2.22375
2.26147
2.29726
2.27861
1.46074
1.43964
1.45599
1.45994
1.34841
1.37048
1.39624
1.42392
1.39129
1.41341
1.4378
1.46396
1.41978
1.44169
1.46537
1.49064
1.43535
1.45776
1.48165
1.50687
1.44228
1.46523
1.48949
1.51496
1.44176
1.46535
1.49015
1.51607
1.43491
1.45918
1.48459
1.51107
1.42228
1.44724
1.4733
1.50043
1.40421
1.42982
1.45655
1.48436
1.38079
1.40699
1.43435
1.46283
1.35197
1.37866
1.40654
1.43563
1.3176
1.3446
1.37281
1.40229
1.2776
1.30468
1.333
1.36261
1.23194
1.25884
1.28701
1.31649
1.18052
1.20697
1.23468
1.26371
1.12335
1.14904
1.17596
1.20416
1.06056
1.08518
1.11094
1.13792
0.992406
1.01564
1.03992
1.06529
0.919248
0.940832
0.963342
0.986798
0.841527
0.861251
0.881766
0.903069
0.759745
0.777448
0.795808
0.814802
0.674481
0.690039
0.706129
0.722715
0.586188
0.599505
0.613232
0.627332
0.494956
0.505958
0.517239
0.528766
0.401106
0.409712
0.418473
0.427352
0.306217
0.312383
0.318601
0.324835
0.212148
0.215954
0.219716
0.223393
0.117814
0.119298
0.12062
0.121735
0.0177204
0.0166315
0.0152477
0.0135161
303.837
302.652
301.67
301.586
301.919
301.855
301.822
301.751
301.674
301.601
301.529
301.424
301.343
301.306
301.286
301.298
301.313
301.324
301.325
416.365
356.76
300.651
301.544
301.919
301.808
301.703
301.629
301.6
301.514
301.412
301.343
301.255
301.221
301.199
301.248
301.272
301.293
301.302
897.963
544.981
302.762
302.487
302.241
301.719
301.627
301.569
301.518
301.505
301.548
301.244
301.066
301.068
301.051
301.185
301.207
301.237
301.278
1163.78
1156.71
541.235
302.17
357.513
301.179
301.593
301.458
301.344
301.454
301.093
301.036
300.735
300.846
300.793
300.993
301.045
301.121
301.285
1212.72
1243.21
1219.4
863.011
964.819
966.825
632.054
556.965
736.79
648.702
481.203
388.96
299.46
315.009
300.474
300.742
300.769
301.036
301.328
1253.53
1282.93
1309.02
1331.12
1306.35
1316.49
1329.31
1289.79
1297.28
1315.21
1254.02
1206.1
1172.8
993.35
473.817
350.368
300.667
300.58
301.145
654.923
1048.91
1265.35
1350.64
1349.8
1360.39
1368.05
1366.4
1361.48
1368.06
1371.3
1384.04
1422.76
1423.4
1441.3
1160.09
388.128
296.028
301.636
8.08431
99.7306
269.291
485.301
707.381
855.248
945.296
999.719
1035.2
1074.84
1164.93
1391.44
1451.54
1478.52
1528.57
1588.96
1146.28
361.441
359.776
1.48278
1.64713
2.1255
2.82019
7.76492
23.8149
42.8741
60.368
75.1519
94.8643
140.762
268.053
528.485
1215.9
1584.45
1663.41
1709.49
1058.87
936.344
1.51107
1.66603
1.92686
2.50252
2.84113
2.42966
2.21966
2.20018
2.2381
2.26701
2.32827
2.54019
3.51719
71.9646
776.435
1697.78
1880.94
1946.67
1614.7
2.36398
2.49244
2.73887
2.86429
2.95894
2.6632
2.13458
2.1417
2.18408
2.19806
2.20386
2.25194
2.4095
3.14173
9.59809
1188.39
1953.71
2228.14
1861.55
2.37078
2.63928
2.74103
2.43557
1.98266
1.95797
2.03925
2.12405
2.18569
2.21366
2.23158
2.28302
2.40096
2.62902
3.91342
604.858
1893.14
2241.63
1747.65
1.58672
1.71822
1.7427
1.71853
1.8211
1.93009
2.02943
2.11463
2.18285
2.22941
2.26975
2.33748
2.45445
2.62844
2.92285
228.73
1645.85
2189.61
1491.59
1.47372
1.55163
1.63716
1.73188
1.83242
1.93212
2.0253
2.10804
2.18199
2.25077
2.32471
2.39722
2.51913
2.65696
2.78125
30.08
1396.32
2143.51
1176.66
1.51115
1.58549
1.6669
1.75455
1.84567
1.93737
2.02699
2.1099
2.18796
2.26734
2.36313
2.46365
2.57344
2.68342
2.86031
2.82982
1321.6
1979.78
785.48
1.53604
1.60809
1.68626
1.76907
1.85488
1.9423
2.02916
2.11255
2.19273
2.27373
2.37248
2.48404
2.6048
2.65267
2.72898
6.21421
1565
1384.5
340.705
1.55161
1.62201
1.6979
1.77797
1.86112
1.9463
2.03174
2.11516
2.19534
2.27479
2.36015
2.47248
2.5776
2.59282
2.74841
114.252
1656.29
1017.85
55.1584
1.55984
1.62956
1.7044
1.7832
1.86512
1.9493
2.03411
2.11778
2.19634
2.27293
2.35231
2.4536
2.55926
2.63685
2.83474
137.697
1741.54
1075.61
44.4072
1.56147
1.63136
1.7062
1.78498
1.86696
1.9513
2.03576
2.12221
2.19827
2.27376
2.34906
2.44175
2.54894
2.66437
2.77426
78.2592
1239.05
1398.38
79.5464
1.55728
1.62797
1.70364
1.78352
1.86682
1.95313
2.04126
2.12821
2.20724
2.28319
2.3604
2.44107
2.53654
2.62969
2.81883
7.07868
600.776
1517.35
538.959
1.54766
1.61968
1.69682
1.7788
1.86442
1.9541
2.04674
2.13975
2.22621
2.305
2.38245
2.45198
2.53131
2.62287
2.78623
2.87351
198.057
1567.86
1243.63
1.53276
1.60657
1.68601
1.77079
1.86062
1.95368
2.0527
2.15536
2.25441
2.34435
2.41973
2.48344
2.56004
2.68105
2.89322
3.14772
121.521
1626.53
1006.95
1.51244
1.58828
1.66999
1.75901
1.85379
1.94965
2.05802
2.17202
2.28717
2.39143
2.4768
2.54197
2.61501
2.76488
3.03565
3.45716
165.613
1147.02
398.086
1.48642
1.56467
1.6473
1.74002
1.83897
1.94476
2.06147
2.18815
2.32088
2.44278
2.54533
2.62154
2.68567
2.79329
2.91447
5.82249
22.1828
64.8559
11.3899
1.45374
1.53285
1.6195
1.71525
1.81921
1.93344
2.06043
2.19685
2.35541
2.49025
2.60462
2.68991
2.73599
2.73522
2.76329
4.18006
12.4326
65.9786
241.608
1.4144
1.49463
1.58361
1.68256
1.79183
1.91439
2.05365
2.2075
2.37226
2.52867
2.64495
2.72003
2.76892
2.8006
2.96169
3.42812
4.43032
83.6208
993.772
1.36817
1.44879
1.53888
1.64006
1.75349
1.88352
2.03457
2.20352
2.3806
2.55855
2.67835
2.72238
2.78561
2.87589
3.09611
2.92946
3.9757
72.8081
1890.31
1.31469
1.39461
1.48445
1.58634
1.70211
1.83758
1.99882
2.18116
2.37213
2.56972
2.70849
2.69995
2.76737
2.88658
3.13505
48.8841
39.8948
194.673
2459.64
1.25373
1.3316
1.41952
1.51985
1.63506
1.77274
1.94091
2.13361
2.3341
2.5438
2.70281
2.6883
2.56408
2.5379
294.817
588.394
468.966
668.051
2969.64
1.18531
1.25967
1.34363
1.43936
1.54975
1.68398
1.85054
2.0472
2.25503
2.47955
2.66136
2.69751
8.23598
658.166
726.593
739.969
453.04
913.917
3593.49
1.10978
1.17929
1.25716
1.34498
1.44525
1.56842
1.72206
1.90892
2.11835
2.37385
2.65792
2.74666
169.396
667.464
626.497
151.594
84.6209
729.507
4054.87
1.0278
1.09137
1.16155
1.23911
1.32508
1.42829
1.55976
1.72174
1.90267
2.11552
18.9423
90.5188
196.652
105.575
24.5513
-0.218768
8.05897
753.892
3973.15
0.940169
0.997086
1.05867
1.1248
1.19451
1.27224
1.37238
1.50125
1.6442
1.73519
73.4221
149.085
50.6736
0.894525
-1.42915
-2.30793
132.086
660.6
2204.58
0.847755
0.897706
0.950569
1.0055
1.0595
1.11273
1.17397
1.26846
1.32457
1.31227
62.8113
163.416
34.2596
-0.661475
-1.65849
-3.89771
227.471
158.333
99.7166
0.75139
0.794322
0.83883
0.883525
0.924625
0.959171
0.988245
1.03774
0.993417
0.798357
39.5749
173.369
41.8511
-0.151724
-1.05395
5.90449
148.158
10.1471
7.56545
0.651611
0.687525
0.724035
0.759297
0.790175
0.811188
0.82239
0.846878
0.815873
0.558798
80.9256
181.214
76.2807
0.994049
0.470733
11.1985
12.0348
5.15367
3.40158
0.548494
0.577273
0.605854
0.632185
0.6543
0.664144
0.665227
0.649518
0.663585
0.560875
81.4971
191.193
111.301
1.88406
1.86329
6.1122
3.25171
1.659
1.86708
0.442413
0.463826
0.484187
0.501434
0.514127
0.512567
0.506707
0.458949
0.41405
0.361403
7.88261
200.3
159.937
5.75135
1.96463
2.53868
1.61164
-0.157685
0.537613
0.335267
0.34927
0.361218
0.369021
0.370707
0.356675
0.342615
0.27086
0.192825
0.159189
-0.67633
205.4
233.128
34.0592
1.24506
1.67499
0.64318
-1.13321
-0.246159
0.229324
0.23624
0.240179
0.238934
0.229514
0.203671
0.173372
0.0824741
0.00680228
0.0778879
1.80774
229.024
237.061
105.587
0.235749
0.556124
-0.0239865
-1.28073
-0.237496
0.12313
0.12307
0.119382
0.109791
0.0907348
0.0555904
0.00541832
-0.103967
-0.230196
-0.189902
-0.964488
114.485
230.208
221.66
51.3001
-0.680053
-0.635994
-0.892889
-0.362151
0.00992026
0.00215715
-0.00983744
-0.0282398
-0.056438
-0.0999553
-0.163718
-0.285989
-0.444867
-0.732428
-2.61413
-3.16157
64.5099
92.1098
-1.21468
-0.97006
-0.520051
-0.0656986
-0.228657
)
;

boundaryField
{
    leftWall
    {
        type            fixedFluxPressure;
        gradient        uniform 0;
        value           nonuniform List<scalar> 
50
(
908.074
907.045
904.905
901.912
898.381
894.675
891.293
888.754
886.522
892.04
913.187
731.812
10.7875
1.45221
1.42357
1.38775
1.36006
1.33393
1.30766
1.28098
1.25347
1.22503
1.19565
1.16533
1.13406
1.10183
1.06861
1.03436
0.999057
0.962661
0.925114
0.886395
0.846472
0.805324
0.762946
0.719376
0.674669
0.628826
0.581893
0.53392
0.484956
0.435084
0.384428
0.333049
0.28084
0.22784
0.174658
0.121896
0.069073
0.0139805
)
;
    }
    rightWall
    {
        type            fixedFluxPressure;
        gradient        uniform 0;
        value           nonuniform List<scalar> 
50
(
301.382
301.38
301.377
301.373
301.367
301.36
301.352
301.342
301.325
301.302
301.278
301.285
301.328
301.145
301.636
359.776
936.344
1614.7
1861.55
1747.65
1491.59
1176.66
785.48
340.705
55.1584
44.4072
79.5464
538.959
1243.63
1006.95
398.086
11.3899
241.608
993.772
1890.31
2459.64
2969.64
3593.49
4054.87
3973.15
2204.58
99.7166
7.56545
3.40158
1.86708
0.537613
-0.246159
-0.237496
-0.362151
-0.228657
)
;
    }
    lowerWall
    {
        type            fixedFluxPressure;
        gradient        uniform 0;
        value           nonuniform List<scalar> 
62
(
908.074
910.047
918.242
926.785
930.645
929.23
925.064
921.236
919.545
920.663
924.818
932.188
943.061
957.785
976.525
999.45
1026.03
1053.8
1076.26
1087.37
1064.99
1055
1100.91
1100.91
1092.18
1092.21
1104.97
1125.38
1131.15
1115.46
1075.33
814.913
831.822
730.67
428.64
302.799
302.801
302.806
302.814
302.827
302.858
302.847
302.895
302.799
302.789
302.591
302.388
302.255
302.139
302.021
301.907
301.799
301.701
301.613
301.538
301.479
301.437
301.41
301.396
301.391
301.389
301.382
)
;
    }
    atmosphere
    {
        type            totalPressure;
        rho             rho;
        psi             none;
        gamma           1;
        p0              uniform 0;
        value           nonuniform List<scalar> 
46
(
-0.0157437
-0.017084
-0.0168524
-0.0170748
-0.0171559
-0.0172702
-0.017388
-0.0175206
-0.0176744
-0.017858
-0.0180813
-0.0183573
-0.0187015
-0.0191328
-0.0196754
-0.0203615
-0.0212324
-0.0223407
-0.0237531
-0.0255566
-0.0278637
-0.0308197
-0.0346181
-0.038212
-0.040864
-0.0438877
-0.0473453
-0.0540043
-0.0665062
-0.0836761
-0.107565
-0.141294
-0.189545
-0.255584
-0.380598
-0.438319
-0.713881
-1.80301
-2.5253
0
0
0
0
0
0
-0.146348
)
;
    }
    defaultFaces
    {
        type            empty;
    }
}


// ************************************************************************* //
