/*--------------------------------*- C++ -*----------------------------------*\
| =========                 |                                                 |
| \\      /  F ield         | OpenFOAM: The Open Source CFD Toolbox           |
|  \\    /   O peration     | Version:  5.x                                   |
|   \\  /    A nd           | Web:      www.OpenFOAM.org                      |
|    \\/     M anipulation  |                                                 |
\*---------------------------------------------------------------------------*/
FoamFile
{
    version     2.0;
    format      ascii;
    class       surfaceScalarField;
    location    "0.4";
    object      phi;
}
// * * * * * * * * * * * * * * * * * * * * * * * * * * * * * * * * * * * * * //

dimensions      [0 3 -1 0 0 0 0];

internalField   nonuniform List<scalar> 
4432
(
-3.2785e-06
3.2785e-06
-2.44152e-06
-8.36983e-07
2.16184e-06
-4.60336e-06
8.53178e-06
-6.36994e-06
1.50543e-05
-6.52255e-06
2.07522e-05
-5.69791e-06
2.52878e-05
-4.53553e-06
2.87086e-05
-3.42084e-06
3.1215e-05
-2.50641e-06
3.3023e-05
-1.80802e-06
3.42965e-05
-1.27342e-06
3.51124e-05
-8.15899e-07
3.54304e-05
-3.18075e-07
3.50164e-05
4.13991e-07
3.33972e-05
1.61922e-06
2.99514e-05
3.4458e-06
2.38278e-05
6.12358e-06
1.44594e-05
9.36849e-06
3.23746e-06
1.12219e-05
-6.47402e-06
9.71148e-06
-1.51871e-05
8.71311e-06
-1.61604e-05
9.73259e-07
-1.61604e-05
-3.34482e-06
6.62331e-06
-2.20248e-06
-1.97932e-06
2.47225e-06
-9.27809e-06
8.84788e-06
-1.27456e-05
1.53198e-05
-1.29945e-05
2.09476e-05
-1.13258e-05
2.54224e-05
-9.01027e-06
2.88114e-05
-6.80982e-06
3.13248e-05
-5.01986e-06
3.31765e-05
-3.65967e-06
3.45204e-05
-2.61733e-06
3.54363e-05
-1.7318e-06
3.59617e-05
-8.43464e-07
3.61535e-05
2.22161e-07
3.61242e-05
1.64847e-06
3.57192e-05
3.85089e-06
3.43216e-05
7.52114e-06
3.0237e-05
1.34531e-05
2.10046e-05
2.04543e-05
6.13093e-06
2.45851e-05
-7.42471e-06
2.22687e-05
-9.05743e-06
2.60599e-06
-2.52178e-05
-3.02974e-06
9.65305e-06
-1.76123e-06
-3.24784e-06
2.9866e-06
-1.40259e-05
9.30634e-06
-1.90653e-05
1.56186e-05
-1.93068e-05
2.10475e-05
-1.67546e-05
2.5344e-05
-1.33068e-05
2.86151e-05
-1.00809e-05
3.10855e-05
-7.49031e-06
3.29626e-05
-5.53675e-06
3.43839e-05
-4.03866e-06
3.54097e-05
-2.75753e-06
3.60245e-05
-1.45826e-06
3.61826e-05
6.39873e-08
3.58073e-05
2.02384e-06
3.49804e-05
4.67774e-06
3.40401e-05
8.46143e-06
3.31896e-05
1.43037e-05
3.0595e-05
2.30489e-05
2.29721e-05
3.2208e-05
1.1806e-05
3.34348e-05
3.37586e-06
1.10362e-05
-2.1842e-05
-2.61515e-06
1.22682e-05
-1.09164e-06
-4.77135e-06
3.69898e-06
-1.88166e-05
9.90535e-06
-2.52717e-05
1.598e-05
-2.53814e-05
2.11282e-05
-2.19029e-05
2.51866e-05
-1.73651e-05
2.83158e-05
-1.32102e-05
3.07535e-05
-9.92796e-06
3.26904e-05
-7.47365e-06
3.42356e-05
-5.58382e-06
3.54206e-05
-3.94261e-06
3.62189e-05
-2.25646e-06
3.65609e-05
-2.78043e-07
3.63648e-05
2.21993e-06
3.55813e-05
5.46122e-06
3.4335e-05
9.7077e-06
3.33483e-05
1.52904e-05
3.32717e-05
2.31254e-05
3.22004e-05
3.32793e-05
2.65276e-05
3.91077e-05
1.44454e-05
2.31183e-05
-7.39653e-06
-2.07667e-06
1.43449e-05
-1.65837e-07
-6.68218e-06
4.55521e-06
-2.35376e-05
1.05815e-05
-3.1298e-05
1.63617e-05
-3.11616e-05
2.11768e-05
-2.67179e-05
2.49618e-05
-2.11502e-05
2.79423e-05
-1.61906e-05
3.0366e-05
-1.23517e-05
3.23971e-05
-9.50475e-06
3.41055e-05
-7.29229e-06
3.54883e-05
-5.32542e-06
3.64963e-05
-3.26438e-06
3.70576e-05
-8.39348e-07
3.71075e-05
2.17001e-06
3.66125e-05
5.95624e-06
3.55909e-05
1.07293e-05
3.43002e-05
1.65811e-05
3.38227e-05
2.36029e-05
3.45768e-05
3.25252e-05
3.25144e-05
4.11701e-05
2.0715e-05
3.49178e-05
1.33185e-05
-1.39912e-06
1.5744e-05
7.37968e-07
-8.81927e-06
5.44794e-06
-2.82476e-05
1.12268e-05
-3.70768e-05
1.66871e-05
-3.66219e-05
2.11695e-05
-3.12003e-05
2.46975e-05
-2.46782e-05
2.75609e-05
-1.9054e-05
3.00118e-05
-1.48026e-05
3.21788e-05
-1.16718e-05
3.40865e-05
-9.19997e-06
3.56933e-05
-6.93221e-06
3.69257e-05
-4.49682e-06
3.77048e-05
-1.61846e-06
3.79753e-05
1.89959e-06
3.77312e-05
6.20033e-06
3.70113e-05
1.14492e-05
3.58798e-05
1.77125e-05
3.4713e-05
2.47697e-05
3.46083e-05
3.263e-05
3.35502e-05
4.22281e-05
2.34169e-05
4.50511e-05
3.67353e-05
-5.92598e-07
1.63366e-05
1.81758e-06
-1.12294e-05
6.34399e-06
-3.2774e-05
1.17655e-05
-4.24984e-05
1.68686e-05
-4.1725e-05
2.10383e-05
-3.537e-05
2.43611e-05
-2.8001e-05
2.71738e-05
-2.18667e-05
2.97174e-05
-1.73462e-05
3.20752e-05
-1.40295e-05
3.42238e-05
-1.13486e-05
3.60853e-05
-8.79378e-06
3.75652e-05
-5.97668e-06
3.85765e-05
-2.6298e-06
3.9055e-05
1.42115e-06
3.90073e-05
6.248e-06
3.84768e-05
1.19797e-05
3.7571e-05
1.86183e-05
3.62606e-05
2.60801e-05
3.50492e-05
3.38414e-05
3.34956e-05
4.37817e-05
2.53824e-05
5.31643e-05
6.21178e-05
4.06504e-07
1.59301e-05
3.21023e-06
-1.40332e-05
7.53557e-06
-3.70993e-05
1.24561e-05
-4.74189e-05
1.70615e-05
-4.63304e-05
2.08646e-05
-3.91731e-05
2.3996e-05
-3.11324e-05
2.6795e-05
-2.46657e-05
2.94627e-05
-2.00139e-05
3.20271e-05
-1.65939e-05
3.44201e-05
-1.37416e-05
3.65379e-05
-1.09116e-05
3.82736e-05
-7.71237e-06
3.95418e-05
-3.898e-06
4.02982e-05
6.64762e-07
4.04971e-05
6.0491e-06
4.01456e-05
1.23312e-05
3.93673e-05
1.93967e-05
3.81809e-05
2.72665e-05
3.65151e-05
3.55072e-05
3.41481e-05
4.61487e-05
2.68347e-05
6.04777e-05
8.89525e-05
8.61903e-06
-8.61903e-06
3.42993e-05
-2.56803e-05
4.02211e-05
-5.92183e-06
3.14622e-05
8.7591e-06
2.06486e-05
1.08136e-05
1.0552e-05
1.00966e-05
1.01793e-06
9.53415e-06
-7.17912e-06
8.19703e-06
-1.39534e-05
6.77427e-06
-1.90325e-05
5.07913e-06
-2.21167e-05
3.08425e-06
-2.35883e-05
1.4716e-06
-2.36368e-05
4.85106e-08
-2.22658e-05
-1.37109e-06
-1.96308e-05
-2.63489e-06
-1.57336e-05
-3.89721e-06
-1.05275e-05
-5.20624e-06
-4.35158e-06
-6.17586e-06
-4.35156e-06
1.01961e-05
-1.8815e-05
3.79689e-05
-5.3453e-05
4.3361e-05
-1.13138e-05
3.18324e-05
2.02879e-05
1.79869e-05
2.46591e-05
5.65884e-06
2.24247e-05
-4.30596e-06
1.9499e-05
-1.14725e-05
1.53636e-05
-1.66112e-05
1.19129e-05
-2.00065e-05
8.47446e-06
-2.1679e-05
4.75677e-06
-2.22498e-05
2.04249e-06
-2.18749e-05
-3.26369e-07
-2.03709e-05
-2.87525e-06
-1.78301e-05
-5.17563e-06
-1.42115e-05
-7.51567e-06
-9.40079e-06
-1.00171e-05
-3.76856e-06
-1.18081e-05
-8.1201e-06
1.1603e-05
-3.0418e-05
4.2875e-05
-8.47248e-05
4.70691e-05
-1.55078e-05
3.17884e-05
3.55686e-05
1.70456e-05
3.9402e-05
5.18948e-06
3.42808e-05
-4.16236e-06
2.88509e-05
-1.0945e-05
2.21462e-05
-1.62463e-05
1.72143e-05
-2.0212e-05
1.24402e-05
-2.226e-05
6.80476e-06
-2.30637e-05
2.8462e-06
-2.2833e-05
-5.56917e-07
-2.13027e-05
-4.40555e-06
-1.86782e-05
-7.8001e-06
-1.48956e-05
-1.12982e-05
-9.85156e-06
-1.50612e-05
-3.97984e-06
-1.768e-05
-1.21e-05
9.9697e-06
-4.03876e-05
4.70638e-05
-0.000121819
5.17759e-05
-2.02199e-05
3.32478e-05
5.40968e-05
1.77452e-05
5.49046e-05
5.5172e-06
4.65088e-05
-4.25405e-06
3.86221e-05
-1.1332e-05
2.92241e-05
-1.68791e-05
2.27614e-05
-2.1178e-05
1.67391e-05
-2.31261e-05
8.753e-06
-2.38474e-05
3.56754e-06
-2.37323e-05
-6.71861e-07
-2.219e-05
-5.94776e-06
-1.95307e-05
-1.04596e-05
-1.56172e-05
-1.52117e-05
-1.03333e-05
-2.03452e-05
-4.19395e-06
-2.38194e-05
-1.6294e-05
5.96092e-06
-4.63485e-05
4.87758e-05
-0.000164634
5.44416e-05
-2.58856e-05
3.35764e-05
7.49619e-05
1.75684e-05
7.09126e-05
4.6279e-06
5.94493e-05
-5.53704e-06
4.8787e-05
-1.2622e-05
3.6309e-05
-1.79995e-05
2.8139e-05
-2.25479e-05
2.12875e-05
-2.41948e-05
1.04e-05
-2.46698e-05
4.04258e-06
-2.47064e-05
-6.3513e-07
-2.30969e-05
-7.55726e-06
-2.03805e-05
-1.31761e-05
-1.63173e-05
-1.92751e-05
-1.07742e-05
-2.58884e-05
-4.37487e-06
-3.02189e-05
-2.06689e-05
3.59344e-06
-4.99419e-05
4.85469e-05
-0.000209587
5.54209e-05
-3.27596e-05
3.21765e-05
9.82063e-05
1.59838e-05
8.71053e-05
2.74569e-06
7.26874e-05
-7.5537e-06
5.90864e-05
-1.44287e-05
4.3184e-05
-1.93639e-05
3.30742e-05
-2.43531e-05
2.62768e-05
-2.55452e-05
1.15923e-05
-2.55889e-05
4.08628e-06
-2.59254e-05
-2.98759e-07
-2.42038e-05
-9.27893e-06
-2.1423e-05
-1.5957e-05
-1.71611e-05
-2.35372e-05
-1.12867e-05
-3.17628e-05
-4.58009e-06
-3.69255e-05
-2.52491e-05
1.01887e-05
-6.01305e-05
4.28575e-05
-0.000242256
5.0363e-05
-4.02651e-05
2.7826e-05
0.000120743
1.30443e-05
0.000101887
3.09996e-07
8.54216e-05
-1.02039e-05
6.96003e-05
-1.67439e-05
4.97241e-05
-2.08396e-05
3.717e-05
-2.63887e-05
3.18257e-05
-2.68141e-05
1.20179e-05
-2.64157e-05
3.68777e-06
-2.71983e-05
4.83769e-07
-2.53649e-05
-1.11124e-05
-2.26244e-05
-1.86976e-05
-1.82092e-05
-2.79525e-05
-1.19217e-05
-3.80503e-05
-4.84042e-06
-4.40069e-05
-3.00896e-05
3.00589e-05
-9.01895e-05
3.27923e-05
-0.000244989
3.63358e-05
-4.38087e-05
1.90185e-05
0.000138061
9.03316e-06
0.000111872
-1.82738e-06
9.62822e-05
-1.21317e-05
7.99046e-05
-1.84384e-05
5.60308e-05
-2.18876e-05
4.06192e-05
-2.85658e-05
3.85038e-05
-2.88882e-05
1.23403e-05
-2.67697e-05
1.56922e-06
-2.82843e-05
1.99831e-06
-2.63077e-05
-1.3089e-05
-2.37304e-05
-2.12749e-05
-1.94017e-05
-3.22812e-05
-1.26781e-05
-4.47741e-05
-5.17863e-06
-5.15064e-05
-3.52683e-05
5.77023e-06
1.01598e-05
1.45478e-05
-2.28108e-05
2.38849e-05
-4.64365e-05
3.18958e-05
-5.54297e-05
3.88012e-05
-5.32358e-05
4.50432e-05
-4.54151e-05
5.10364e-05
-3.71256e-05
5.70784e-05
-3.07077e-05
6.32086e-05
-2.61441e-05
6.92392e-05
-2.26246e-05
7.48788e-05
-1.93811e-05
7.98528e-05
-1.58856e-05
8.39641e-05
-1.18237e-05
8.71018e-05
-7.03578e-06
8.92533e-05
-1.48668e-06
9.04834e-05
4.819e-06
9.06348e-05
1.21798e-05
8.97815e-05
2.02499e-05
8.82087e-05
2.88393e-05
8.58685e-05
3.78474e-05
8.36925e-05
4.83247e-05
8.50346e-05
5.91356e-05
7.81145e-05
9.58726e-05
1.43737e-05
-4.21385e-06
3.16816e-05
-4.01186e-05
4.16762e-05
-5.64311e-05
4.3877e-05
-5.76305e-05
4.46788e-05
-5.40376e-05
4.77498e-05
-4.84861e-05
5.31781e-05
-4.2554e-05
5.99456e-05
-3.74752e-05
6.71852e-05
-3.33837e-05
7.428e-05
-2.97194e-05
8.07077e-05
-2.58088e-05
8.60785e-05
-2.12564e-05
9.02267e-05
-1.59719e-05
9.32755e-05
-1.00846e-05
9.54223e-05
-3.63344e-06
9.6572e-05
3.66931e-06
9.69435e-05
1.18083e-05
9.67619e-05
2.04316e-05
9.67352e-05
2.8866e-05
9.70758e-05
3.75068e-05
9.86495e-05
4.6751e-05
0.000103109
5.46758e-05
6.64558e-05
0.000114768
2.57074e-05
-2.99212e-05
5.34505e-05
-6.78618e-05
6.1158e-05
-6.41386e-05
5.34081e-05
-4.98806e-05
4.62285e-05
-4.6858e-05
4.60958e-05
-4.83535e-05
5.11147e-05
-4.75728e-05
5.87263e-05
-4.50868e-05
6.72562e-05
-4.19136e-05
7.59087e-05
-3.83718e-05
8.42718e-05
-3.4172e-05
9.19152e-05
-2.88997e-05
9.8316e-05
-2.23727e-05
0.000102817
-1.45857e-05
0.000105053
-5.86979e-06
0.00010507
3.65325e-06
0.000102731
1.41468e-05
0.00010072
2.24425e-05
0.000100814
2.87716e-05
0.000102326
3.59954e-05
0.000104585
4.44914e-05
0.000106946
5.23154e-05
5.99269e-05
0.000113475
3.56484e-05
-6.55696e-05
6.32805e-05
-9.54939e-05
5.5154e-05
-5.6012e-05
3.62812e-05
-3.10079e-05
2.51793e-05
-3.5756e-05
2.18282e-05
-4.50024e-05
2.18161e-05
-4.75607e-05
2.50816e-05
-4.83523e-05
3.02174e-05
-4.70494e-05
3.70361e-05
-4.51906e-05
4.61748e-05
-4.33106e-05
5.75427e-05
-4.02677e-05
7.05235e-05
-3.53535e-05
8.51496e-05
-2.92118e-05
0.000100661
-2.13812e-05
0.000111968
-7.65356e-06
0.000116671
9.44341e-06
0.000117454
2.16594e-05
0.000117079
2.91467e-05
0.000114758
3.83165e-05
0.000112726
4.65239e-05
0.000112541
5.24996e-05
5.77709e-05
0.000114698
2.27999e-05
-8.83696e-05
1.15403e-05
-8.42343e-05
2.81483e-06
-4.72867e-05
-3.29038e-06
-2.49028e-05
-6.20705e-06
-3.28395e-05
-9.84323e-06
-4.13663e-05
-1.51525e-05
-4.22515e-05
-2.09376e-05
-4.25674e-05
-2.6563e-05
-4.14241e-05
-2.97107e-05
-4.20429e-05
-3.00153e-05
-4.30062e-05
-3.04378e-05
-3.98452e-05
-3.67679e-05
-2.90234e-05
-4.98501e-05
-1.61296e-05
-5.31936e-05
-1.80375e-05
-1.77118e-05
-4.31353e-05
4.28989e-05
-5.11672e-05
9.22454e-05
-2.7687e-05
0.000112316
9.07604e-06
0.000118253
3.23798e-05
0.000120658
4.41187e-05
0.000122903
5.02543e-05
5.6968e-05
0.000123706
-2.0541e-05
-6.78286e-05
-3.462e-05
-7.01557e-05
-3.32243e-05
-4.86826e-05
-1.75563e-05
-4.0571e-05
-1.21034e-05
-3.82926e-05
-1.38749e-05
-3.9595e-05
-1.73319e-05
-3.87946e-05
-2.20979e-05
-3.78014e-05
-2.58577e-05
-3.76645e-05
-2.78367e-05
-4.0064e-05
-2.88902e-05
-4.19528e-05
-3.21125e-05
-3.66229e-05
-4.26241e-05
-1.85117e-05
-5.36016e-05
-5.152e-06
-4.12215e-05
-3.04175e-05
-1.12612e-05
-7.30954e-05
1.8608e-05
-8.10363e-05
5.07826e-05
-5.98616e-05
8.40547e-05
-2.4196e-05
0.000101194
1.52401e-05
0.000103192
4.21208e-05
0.000116151
3.72957e-05
4.80252e-05
0.000125094
-2.4615e-05
-4.32137e-05
-2.64799e-05
-6.82911e-05
-2.08918e-05
-5.42708e-05
-1.72469e-05
-4.42159e-05
-1.56029e-05
-3.99367e-05
-1.64173e-05
-3.87807e-05
-1.8194e-05
-3.7018e-05
-2.04982e-05
-3.54974e-05
-2.2205e-05
-3.59578e-05
-2.34256e-05
-3.88434e-05
-2.43601e-05
-4.10183e-05
-2.51534e-05
-3.58295e-05
-2.64198e-05
-1.72451e-05
-2.5101e-05
-6.47066e-06
-8.06545e-06
-4.7453e-05
6.69101e-06
-8.78518e-05
2.03073e-05
-9.46524e-05
4.26462e-05
-8.22004e-05
8.16957e-05
-6.32453e-05
0.000127308
-3.03725e-05
0.000150854
1.85755e-05
0.000140448
4.77013e-05
6.27444e-05
0.000125729
-9.88566e-06
-3.33282e-05
-1.30641e-05
-6.51127e-05
-1.48455e-05
-5.24894e-05
-1.4604e-05
-4.44575e-05
-1.39385e-05
-4.06023e-05
-1.39837e-05
-3.87355e-05
-1.45979e-05
-3.64038e-05
-1.57183e-05
-3.43771e-05
-1.7318e-05
-3.43581e-05
-1.94774e-05
-3.6684e-05
-2.16156e-05
-3.888e-05
-2.08618e-05
-3.65833e-05
-1.35439e-05
-2.4563e-05
-5.6085e-07
-1.94537e-05
6.91336e-06
-5.49272e-05
1.73956e-06
-8.2678e-05
3.51674e-06
-9.64296e-05
1.81346e-05
-9.68182e-05
4.38202e-05
-8.89308e-05
8.56317e-05
-7.21839e-05
0.00013171
-2.75032e-05
0.000151232
2.81794e-05
6.26034e-05
0.000151373
-5.5093e-06
-2.7819e-05
-9.63026e-06
-6.09918e-05
-1.12244e-05
-5.08952e-05
-1.16874e-05
-4.39946e-05
-1.14399e-05
-4.08499e-05
-1.13504e-05
-3.8825e-05
-1.13443e-05
-3.641e-05
-1.16093e-05
-3.41121e-05
-1.25736e-05
-3.33937e-05
-1.44505e-05
-3.48071e-05
-1.64349e-05
-3.68956e-05
-1.518e-05
-3.78381e-05
-5.03554e-06
-3.47074e-05
9.93733e-06
-3.44266e-05
9.64911e-06
-5.4639e-05
-1.26525e-07
-7.29024e-05
-8.96295e-06
-8.75931e-05
-1.06905e-05
-9.50906e-05
-2.52649e-06
-9.70947e-05
1.57199e-05
-9.04302e-05
5.3456e-05
-6.52393e-05
9.3719e-05
-1.20836e-05
3.77227e-05
0.0001186
-3.40558e-06
-2.44134e-05
-6.70821e-06
-5.76891e-05
-8.32447e-06
-4.9279e-05
-9.07035e-06
-4.32487e-05
-9.22257e-06
-4.06978e-05
-9.12598e-06
-3.89217e-05
-8.68121e-06
-3.68547e-05
-8.0272e-06
-3.47661e-05
-7.71961e-06
-3.37012e-05
-8.15005e-06
-3.43765e-05
-8.78595e-06
-3.62596e-05
-7.84422e-06
-3.87798e-05
-1.63018e-06
-4.09215e-05
7.38809e-06
-4.3445e-05
7.98477e-06
-5.52357e-05
2.92466e-06
-6.78423e-05
-5.73293e-06
-7.89355e-05
-1.32433e-05
-8.75802e-05
-1.52995e-05
-9.50383e-05
-1.96213e-05
-8.61084e-05
-1.73383e-05
-6.75222e-05
5.38776e-06
-3.48096e-05
9.20266e-06
3.39079e-05
-1.77739e-06
-2.2636e-05
-4.48785e-06
-5.49786e-05
-6.20533e-06
-4.75615e-05
-7.033e-06
-4.24211e-05
-7.30217e-06
-4.04287e-05
-7.18699e-06
-3.90369e-05
-6.54861e-06
-3.74931e-05
-5.39575e-06
-3.59189e-05
-4.13469e-06
-3.49622e-05
-3.23428e-06
-3.52768e-05
-2.57562e-06
-3.69183e-05
-1.65476e-06
-3.97007e-05
5.6211e-07
-4.31385e-05
4.50282e-06
-4.73857e-05
4.52144e-06
-5.52544e-05
1.0594e-07
-6.34268e-05
-7.49572e-06
-7.13338e-05
-1.51824e-05
-7.98934e-05
-2.28502e-05
-8.73704e-05
-2.99633e-05
-7.89952e-05
-4.00723e-05
-5.74132e-05
-4.24113e-05
-3.24705e-05
-7.28047e-06
-2.59281e-05
-9.45251e-07
-2.16906e-05
-3.10792e-06
-5.28159e-05
-4.62698e-06
-4.60424e-05
-5.44712e-06
-4.1601e-05
-5.79322e-06
-4.00826e-05
-5.75286e-06
-3.90773e-05
-5.21631e-06
-3.80296e-05
-4.10927e-06
-3.70259e-05
-2.65609e-06
-3.64153e-05
-1.25432e-06
-3.66786e-05
-1.42591e-07
-3.803e-05
5.51382e-07
-4.03947e-05
1.01178e-06
-4.35989e-05
1.24513e-06
-4.76191e-05
-1.04408e-06
-5.29651e-05
-6.02832e-06
-5.84424e-05
-1.40031e-05
-6.33589e-05
-2.47557e-05
-6.91408e-05
-3.75595e-05
-7.45665e-05
-4.31451e-05
-7.34095e-05
-3.934e-05
-6.12183e-05
-3.13011e-05
-4.05094e-05
-1.85204e-05
-2.00611e-05
-5.04679e-07
-2.11859e-05
-2.23161e-06
-5.10889e-05
-3.53877e-06
-4.47353e-05
-4.29888e-06
-4.0841e-05
-4.68809e-06
-3.96935e-05
-4.76342e-06
-3.9002e-05
-4.47396e-06
-3.83191e-05
-3.75713e-06
-3.77427e-05
-2.69909e-06
-3.74733e-05
-1.59237e-06
-3.77853e-05
-7.70503e-07
-3.88519e-05
-4.89682e-07
-4.06756e-05
-9.54509e-07
-4.3134e-05
-2.43145e-06
-4.61421e-05
-5.67831e-06
-4.97182e-05
-1.0821e-05
-5.32997e-05
-1.80425e-05
-5.61373e-05
-2.89711e-05
-5.82121e-05
-4.41424e-05
-5.93952e-05
-5.94785e-05
-5.80733e-05
-6.85973e-05
-5.20995e-05
-6.80421e-05
-4.10647e-05
-2.62692e-05
-6.02934e-05
-3.00109e-07
-2.08858e-05
-1.68224e-06
-4.97069e-05
-2.7847e-06
-4.36329e-05
-3.48566e-06
-4.01401e-05
-3.89812e-06
-3.92811e-05
-4.08344e-06
-3.88167e-05
-4.03553e-06
-3.8367e-05
-3.73831e-06
-3.80399e-05
-3.24123e-06
-3.79704e-05
-2.74201e-06
-3.82846e-05
-2.49723e-06
-3.90967e-05
-2.7595e-06
-4.04133e-05
-3.72218e-06
-4.21713e-05
-5.60197e-06
-4.42622e-05
-8.74989e-06
-4.65701e-05
-1.32525e-05
-4.8797e-05
-1.89321e-05
-5.04576e-05
-2.58614e-05
-5.12827e-05
-3.45487e-05
-5.07078e-05
-4.48091e-05
-4.78129e-05
-5.47203e-05
-4.21882e-05
-6.18861e-05
-3.3899e-05
-2.3235e-05
-6.49204e-05
-2.14577e-07
-2.06713e-05
-1.33117e-06
-4.85904e-05
-2.26687e-06
-4.26973e-05
-2.90817e-06
-3.94989e-05
-3.34151e-06
-3.88479e-05
-3.61324e-06
-3.85451e-05
-3.74288e-06
-3.82375e-05
-3.75305e-06
-3.80298e-05
-3.69964e-06
-3.80239e-05
-3.69606e-06
-3.82882e-05
-3.92282e-06
-3.88699e-05
-4.56296e-06
-3.97731e-05
-5.78317e-06
-4.0951e-05
-7.74941e-06
-4.22958e-05
-1.06407e-05
-4.36788e-05
-1.45783e-05
-4.48593e-05
-1.95315e-05
-4.55043e-05
-2.54673e-05
-4.53469e-05
-3.21909e-05
-4.39841e-05
-3.90659e-05
-4.09379e-05
-4.52683e-05
-3.59859e-05
-5.00733e-05
-2.90941e-05
-2.06944e-05
-5.2614e-05
-1.88529e-07
-2.04828e-05
-1.10449e-06
-4.76745e-05
-1.91554e-06
-4.18864e-05
-2.50492e-06
-3.89096e-05
-2.94912e-06
-3.84037e-05
-3.28479e-06
-3.82095e-05
-3.53395e-06
-3.79884e-05
-3.73208e-06
-3.78317e-05
-3.9376e-06
-3.78184e-05
-4.23674e-06
-3.7989e-05
-4.74578e-06
-3.83608e-05
-5.59321e-06
-3.89256e-05
-6.90597e-06
-3.96382e-05
-8.79219e-06
-4.04095e-05
-1.13701e-05
-4.11007e-05
-1.4698e-05
-4.15313e-05
-1.87432e-05
-4.14589e-05
-2.3439e-05
-4.0651e-05
-2.85759e-05
-3.88472e-05
-3.36731e-05
-3.58407e-05
-3.81449e-05
-3.15142e-05
-4.13363e-05
-2.59027e-05
-1.92408e-05
-4.27899e-05
-1.77489e-07
-2.03054e-05
-9.51617e-07
-4.69005e-05
-1.66897e-06
-4.11691e-05
-2.216e-06
-3.83627e-05
-2.66312e-06
-3.79567e-05
-3.04406e-06
-3.78286e-05
-3.37685e-06
-3.76556e-05
-3.69343e-06
-3.75151e-05
-4.0459e-06
-3.74659e-05
-4.50375e-06
-3.75311e-05
-5.15035e-06
-3.77142e-05
-6.07351e-06
-3.80024e-05
-7.37996e-06
-3.83317e-05
-9.12431e-06
-3.86651e-05
-1.13772e-05
-3.88477e-05
-1.41612e-05
-3.87472e-05
-1.74344e-05
-3.81856e-05
-2.10946e-05
-3.69907e-05
-2.49428e-05
-3.4999e-05
-2.86687e-05
-3.21148e-05
-3.18639e-05
-2.8319e-05
-3.41418e-05
-2.36249e-05
-1.8168e-05
-3.52146e-05
-1.64794e-07
-2.01406e-05
-8.42117e-07
-4.62232e-05
-1.4917e-06
-4.05196e-05
-2.00064e-06
-3.78538e-05
-2.44242e-06
-3.7515e-05
-2.85014e-06
-3.74209e-05
-3.23792e-06
-3.72678e-05
-3.63208e-06
-3.71209e-05
-4.07171e-06
-3.70262e-05
-4.61123e-06
-3.69915e-05
-5.31704e-06
-3.70083e-05
-6.25628e-06
-3.70631e-05
-7.46613e-06
-3.71218e-05
-9.03966e-06
-3.70916e-05
-1.09807e-05
-3.69066e-05
-1.32887e-05
-3.64391e-05
-1.59248e-05
-3.55494e-05
-1.87735e-05
-3.4142e-05
-2.16749e-05
-3.20976e-05
-2.4405e-05
-2.93847e-05
-2.66999e-05
-2.60241e-05
-2.82992e-05
-2.20256e-05
-1.74317e-05
-2.90355e-05
-1.46143e-07
-1.99945e-05
-7.58593e-07
-4.56108e-05
-1.35427e-06
-3.99239e-05
-1.82823e-06
-3.73799e-05
-2.25731e-06
-3.70859e-05
-2.67457e-06
-3.70036e-05
-3.09326e-06
-3.68491e-05
-3.52866e-06
-3.66854e-05
-4.01523e-06
-3.65395e-05
-4.59228e-06
-3.64144e-05
-5.2952e-06
-3.63054e-05
-6.17797e-06
-3.61804e-05
-7.30251e-06
-3.59973e-05
-8.66165e-06
-3.57324e-05
-1.02924e-05
-3.52758e-05
-1.21847e-05
-3.45467e-05
-1.42487e-05
-3.34853e-05
-1.64294e-05
-3.19613e-05
-1.859e-05
-2.9937e-05
-2.05783e-05
-2.73962e-05
-2.22026e-05
-2.43996e-05
-2.33062e-05
-2.09219e-05
-1.69582e-05
-2.37796e-05
-1.1283e-07
-1.98817e-05
-6.83709e-07
-4.50399e-05
-1.23762e-06
-3.937e-05
-1.67792e-06
-3.69396e-05
-2.08674e-06
-3.66771e-05
-2.49736e-06
-3.6593e-05
-2.91738e-06
-3.6429e-05
-3.36295e-06
-3.62397e-05
-3.85455e-06
-3.60478e-05
-4.42324e-06
-3.58457e-05
-5.10341e-06
-3.56253e-05
-5.92326e-06
-3.53606e-05
-6.88848e-06
-3.50321e-05
-8.04639e-06
-3.45744e-05
-9.38223e-06
-3.39398e-05
-1.08745e-05
-3.30543e-05
-1.24899e-05
-3.18698e-05
-1.41437e-05
-3.03076e-05
-1.5734e-05
-2.83466e-05
-1.71388e-05
-2.59913e-05
-1.82665e-05
-2.32718e-05
-1.89964e-05
-2.0192e-05
-1.67e-05
-1.92547e-05
-6.91502e-08
-1.98126e-05
-6.12857e-07
-4.44961e-05
-1.13366e-06
-3.88491e-05
-1.53868e-06
-3.65345e-05
-1.92286e-06
-3.62929e-05
-2.31382e-06
-3.6202e-05
-2.72015e-06
-3.60226e-05
-3.15294e-06
-3.58068e-05
-3.62935e-06
-3.55713e-05
-4.16084e-06
-3.53142e-05
-4.77157e-06
-3.50147e-05
-5.48205e-06
-3.46501e-05
-6.31531e-06
-3.41987e-05
-7.2715e-06
-3.3618e-05
-8.34389e-06
-3.28673e-05
-9.50088e-06
-3.18974e-05
-1.07162e-05
-3.06545e-05
-1.19192e-05
-2.91046e-05
-1.30525e-05
-2.72131e-05
-1.40297e-05
-2.5014e-05
-1.47653e-05
-2.25361e-05
-1.5191e-05
-1.97664e-05
-1.6635e-05
-1.5256e-05
-1.53509e-08
-1.97971e-05
-5.4437e-07
-4.39669e-05
-1.0293e-06
-3.83641e-05
-1.39832e-06
-3.61655e-05
-1.74929e-06
-3.5942e-05
-2.11287e-06
-3.58384e-05
-2.49078e-06
-3.56446e-05
-2.88975e-06
-3.54078e-05
-3.32018e-06
-3.51409e-05
-3.79802e-06
-3.48364e-05
-4.33524e-06
-3.44775e-05
-4.941e-06
-3.40443e-05
-5.62629e-06
-3.35134e-05
-6.39122e-06
-3.2853e-05
-7.22827e-06
-3.20302e-05
-8.10294e-06
-3.10227e-05
-8.9861e-06
-2.97714e-05
-9.83812e-06
-2.82525e-05
-1.05831e-05
-2.6468e-05
-1.1192e-05
-2.44049e-05
-1.16065e-05
-2.21216e-05
-1.17764e-05
-1.95965e-05
-1.67494e-05
-1.1662e-05
4.32503e-08
-1.98403e-05
-4.75478e-07
-4.3448e-05
-9.25532e-07
-3.7914e-05
-1.25595e-06
-3.58352e-05
-1.57167e-06
-3.56263e-05
-1.89979e-06
-3.55103e-05
-2.24e-06
-3.53044e-05
-2.59572e-06
-3.5052e-05
-2.9739e-06
-3.47627e-05
-3.38313e-06
-3.44272e-05
-3.83126e-06
-3.40293e-05
-4.32324e-06
-3.35523e-05
-4.86236e-06
-3.29741e-05
-5.44508e-06
-3.22702e-05
-6.05354e-06
-3.14218e-05
-6.6755e-06
-3.04008e-05
-7.27556e-06
-2.91713e-05
-7.81541e-06
-2.77125e-05
-8.26542e-06
-2.60178e-05
-8.58416e-06
-2.40861e-05
-8.72744e-06
-2.19783e-05
-8.66844e-06
-1.96556e-05
-1.70355e-05
-8.38232e-06
1.02854e-07
-1.9943e-05
-3.98135e-07
-4.29468e-05
-8.14558e-07
-3.74976e-05
-1.10518e-06
-3.55446e-05
-1.38303e-06
-3.53486e-05
-1.67167e-06
-3.52217e-05
-1.96867e-06
-3.50074e-05
-2.27545e-06
-3.47452e-05
-2.59646e-06
-3.44417e-05
-2.93638e-06
-3.40873e-05
-3.29512e-06
-3.36705e-05
-3.67246e-06
-3.31748e-05
-4.06651e-06
-3.258e-05
-4.47457e-06
-3.18622e-05
-4.88432e-06
-3.10121e-05
-5.28166e-06
-3.00035e-05
-5.63888e-06
-2.88141e-05
-5.92523e-06
-2.74261e-05
-6.12291e-06
-2.58201e-05
-6.17272e-06
-2.40364e-05
-6.07781e-06
-2.20733e-05
-5.80912e-06
-1.99243e-05
-1.74948e-05
-5.34973e-06
1.61373e-07
-2.01043e-05
-3.14159e-07
-4.24712e-05
-6.87164e-07
-3.71246e-05
-9.4006e-07
-3.52919e-05
-1.17894e-06
-3.51098e-05
-1.42519e-06
-3.49755e-05
-1.67444e-06
-3.47581e-05
-1.92585e-06
-3.44938e-05
-2.1807e-06
-3.41868e-05
-2.43998e-06
-3.3828e-05
-2.70482e-06
-3.34056e-05
-2.97431e-06
-3.29053e-05
-3.24668e-06
-3.23076e-05
-3.49974e-06
-3.16091e-05
-3.73536e-06
-3.07766e-05
-3.93683e-06
-2.9802e-05
-4.08342e-06
-2.86674e-05
-4.15286e-06
-2.73567e-05
-4.10148e-06
-2.58716e-05
-3.93887e-06
-2.41991e-05
-3.62639e-06
-2.23858e-05
-3.15893e-06
-2.03917e-05
-1.81367e-05
-2.51704e-06
2.21004e-07
-2.03252e-05
-2.1453e-07
-4.20357e-05
-5.43424e-07
-3.67959e-05
-7.58118e-07
-3.50773e-05
-9.57931e-07
-3.49101e-05
-1.16097e-06
-3.47725e-05
-1.36207e-06
-3.45569e-05
-1.55894e-06
-3.42969e-05
-1.75083e-06
-3.39949e-05
-1.93651e-06
-3.36423e-05
-2.11389e-06
-3.32282e-05
-2.27859e-06
-3.27406e-05
-2.42486e-06
-3.21614e-05
-2.54545e-06
-3.14886e-05
-2.6267e-06
-3.06953e-05
-2.65633e-06
-2.97724e-05
-2.61612e-06
-2.87076e-05
-2.47591e-06
-2.7497e-05
-2.24178e-06
-2.61059e-05
-1.87066e-06
-2.45703e-05
-1.36916e-06
-2.28874e-05
-7.00116e-07
-2.10607e-05
-1.89641e-05
1.27239e-07
2.86857e-07
-2.0612e-05
-9.68339e-08
-4.1652e-05
-3.81397e-07
-3.65114e-05
-5.59443e-07
-3.48994e-05
-7.19712e-07
-3.47499e-05
-8.78856e-07
-3.46134e-05
-1.03158e-06
-3.44042e-05
-1.17451e-06
-3.41539e-05
-1.30535e-06
-3.3864e-05
-1.42113e-06
-3.35264e-05
-1.51853e-06
-3.31308e-05
-1.59424e-06
-3.26649e-05
-1.62792e-06
-3.21278e-05
-1.62467e-06
-3.14919e-05
-1.56863e-06
-3.07514e-05
-1.44752e-06
-2.98935e-05
-1.24007e-06
-2.89152e-05
-9.42272e-07
-2.77949e-05
-5.08313e-07
-2.654e-05
4.59365e-08
-2.51246e-05
7.37986e-07
-2.35794e-05
1.57875e-06
-2.19015e-05
-1.99723e-05
2.58689e-06
3.63191e-07
-2.09753e-05
2.77609e-08
-4.13167e-05
-2.159e-07
-3.62678e-05
-3.50537e-07
-3.47648e-05
-4.69142e-07
-3.46313e-05
-5.83392e-07
-3.44991e-05
-6.87173e-07
-3.43004e-05
-7.76257e-07
-3.40648e-05
-8.47168e-07
-3.37931e-05
-8.9521e-07
-3.34783e-05
-9.16943e-07
-3.3109e-05
-9.00057e-07
-3.26819e-05
-8.42776e-07
-3.21851e-05
-7.31461e-07
-3.16033e-05
-5.53784e-07
-3.09291e-05
-2.92204e-07
-3.01551e-05
6.05189e-08
-2.9268e-05
5.25307e-07
-2.82599e-05
1.10677e-06
-2.71215e-05
1.82445e-06
-2.58423e-05
2.68303e-06
-2.44379e-05
3.69795e-06
-2.29164e-05
-2.11615e-05
4.88706e-06
4.56732e-07
-2.1432e-05
1.66994e-07
-4.1027e-05
-3.56089e-08
-3.60653e-05
-1.36622e-07
-3.46639e-05
-2.15488e-07
-3.45525e-05
-2.84412e-07
-3.44303e-05
-3.38306e-07
-3.42465e-05
-3.72709e-07
-3.40304e-05
-3.83854e-07
-3.37819e-05
-3.67312e-07
-3.34948e-05
-3.11117e-07
-3.31653e-05
-2.12487e-07
-3.27806e-05
-6.32197e-08
-3.23345e-05
1.50551e-07
-3.18171e-05
4.41492e-07
-3.122e-05
8.21368e-07
-3.05351e-05
1.30577e-06
-2.97525e-05
1.90953e-06
-2.88637e-05
2.64438e-06
-2.78564e-05
3.52211e-06
-2.672e-05
4.54783e-06
-2.54637e-05
5.737e-06
-2.41057e-05
-2.25363e-05
7.11181e-06
5.66099e-07
-2.19981e-05
3.04767e-07
-4.07657e-05
1.30287e-07
-3.58909e-05
6.50468e-08
-3.45987e-05
2.71321e-08
-3.45147e-05
3.31439e-09
-3.44066e-05
-1.32218e-10
-3.42431e-05
2.14569e-08
-3.40519e-05
7.26977e-08
-3.3833e-05
1.59706e-07
-3.35818e-05
2.87482e-07
-3.32931e-05
4.66089e-07
-3.29593e-05
7.05204e-07
-3.25737e-05
1.01708e-06
-3.2129e-05
1.41496e-06
-3.16179e-05
1.91276e-06
-3.10329e-05
2.52578e-06
-3.03656e-05
3.26919e-06
-2.96071e-05
4.15759e-06
-2.87448e-05
5.2035e-06
-2.77659e-05
6.41423e-06
-2.66744e-05
7.80231e-06
-2.54937e-05
-2.41279e-05
9.39399e-06
6.86219e-07
-2.26844e-05
4.24275e-07
-4.05037e-05
2.68278e-07
-3.57349e-05
2.39281e-07
-3.45699e-05
2.3947e-07
-3.45151e-05
2.57675e-07
-3.44249e-05
3.01477e-07
-3.4287e-05
3.76e-07
-3.41264e-05
4.86235e-07
-3.39432e-05
6.38233e-07
-3.37338e-05
8.38927e-07
-3.34938e-05
1.09754e-06
-3.32179e-05
1.42477e-06
-3.29009e-05
1.83324e-06
-3.25374e-05
2.3372e-06
-3.21219e-05
2.95224e-06
-3.1648e-05
3.69541e-06
-3.11088e-05
4.58412e-06
-3.04958e-05
5.63711e-06
-2.97977e-05
6.87237e-06
-2.90011e-05
8.30373e-06
-2.81058e-05
9.9425e-06
-2.71324e-05
-2.60042e-05
1.1819e-05
8.13314e-07
-2.34977e-05
5.15273e-07
-4.02057e-05
3.68792e-07
-3.55885e-05
3.69733e-07
-3.4571e-05
4.00114e-07
-3.45457e-05
4.51595e-07
-3.44765e-05
5.33272e-07
-3.43687e-05
6.50909e-07
-3.4244e-05
8.1002e-07
-3.41022e-05
1.01709e-06
-3.39409e-05
1.27981e-06
-3.37566e-05
1.60772e-06
-3.35459e-05
2.01228e-06
-3.33055e-05
2.50709e-06
-3.30322e-05
3.10783e-06
-3.27227e-05
3.83226e-06
-3.23725e-05
4.70027e-06
-3.19768e-05
5.73353e-06
-3.1529e-05
6.95711e-06
-3.10212e-05
8.39814e-06
-3.04421e-05
1.00816e-05
-2.97891e-05
1.20244e-05
-2.9075e-05
-2.82443e-05
1.42646e-05
9.43939e-07
-2.44416e-05
5.69698e-07
-3.98315e-05
4.21157e-07
-3.54401e-05
4.40864e-07
-3.45908e-05
4.87501e-07
-3.45925e-05
5.57218e-07
-3.45463e-05
6.60307e-07
-3.44718e-05
8.02965e-07
-3.43866e-05
9.91206e-07
-3.42905e-05
1.23195e-06
-3.41817e-05
1.5335e-06
-3.40582e-05
1.90605e-06
-3.39185e-05
2.36208e-06
-3.37615e-05
2.91653e-06
-3.35866e-05
3.58692e-06
-3.33931e-05
4.39362e-06
-3.31792e-05
5.36004e-06
-3.29433e-05
6.51342e-06
-3.26824e-05
7.88622e-06
-3.2394e-05
9.51614e-06
-3.20719e-05
1.1442e-05
-3.17148e-05
1.36948e-05
-3.13277e-05
-3.08753e-05
1.6326e-05
1.0695e-06
-2.55111e-05
5.8297e-07
-3.9345e-05
4.21415e-07
-3.52786e-05
4.4452e-07
-3.46141e-05
4.89786e-07
-3.46379e-05
5.58936e-07
-3.46155e-05
6.62641e-07
-3.45755e-05
8.06965e-07
-3.45309e-05
9.98133e-07
-3.44817e-05
1.24334e-06
-3.4427e-05
1.55134e-06
-3.43662e-05
1.93305e-06
-3.43001e-05
2.40192e-06
-3.42303e-05
2.97413e-06
-3.41589e-05
3.669e-06
-3.40881e-05
4.50932e-06
-3.40197e-05
5.52186e-06
-3.39559e-05
6.73892e-06
-3.38994e-05
8.19934e-06
-3.38543e-05
9.94984e-06
-3.38224e-05
1.20422e-05
-3.3807e-05
1.45263e-05
-3.38117e-05
-3.38205e-05
1.74716e-05
1.17417e-06
-2.66853e-05
5.57024e-07
-3.87278e-05
3.76859e-07
-3.50985e-05
3.87841e-07
-3.46252e-05
4.15568e-07
-3.46657e-05
4.66987e-07
-3.4667e-05
5.52112e-07
-3.46606e-05
6.76251e-07
-3.46551e-05
8.45423e-07
-3.46509e-05
1.06682e-06
-3.46484e-05
1.34942e-06
-3.46488e-05
1.70449e-06
-3.4655e-05
2.14589e-06
-3.46716e-05
2.6905e-06
-3.47035e-05
3.35862e-06
-3.47563e-05
4.17442e-06
-3.48355e-05
5.1667e-06
-3.49482e-05
6.37064e-06
-3.51034e-05
7.82842e-06
-3.53121e-05
9.5916e-06
-3.55855e-05
1.172e-05
-3.59353e-05
1.42798e-05
-3.63714e-05
-3.68998e-05
1.73593e-05
1.24307e-06
-2.79283e-05
5.01763e-07
-3.79865e-05
3.05053e-07
-3.49019e-05
2.94016e-07
-3.46142e-05
2.94794e-07
-3.46665e-05
3.18332e-07
-3.46905e-05
3.73199e-07
-3.47155e-05
4.6356e-07
-3.47455e-05
5.94797e-07
-3.47822e-05
7.73779e-07
-3.48273e-05
1.00937e-06
-3.48842e-05
1.31269e-06
-3.49582e-05
1.69732e-06
-3.50562e-05
2.17984e-06
-3.51861e-05
2.7802e-06
-3.53567e-05
3.52243e-06
-3.55778e-05
4.43544e-06
-3.58612e-05
5.55429e-06
-3.62222e-05
6.92091e-06
-3.66787e-05
8.58657e-06
-3.72511e-05
1.06122e-05
-3.79609e-05
1.3071e-05
-3.883e-05
-3.98882e-05
1.60593e-05
1.26262e-06
-2.91909e-05
4.29002e-07
-3.71528e-05
2.25139e-07
-3.4698e-05
1.91088e-07
-3.45802e-05
1.64231e-07
-3.46397e-05