/*--------------------------------*- C++ -*----------------------------------*\
| =========                 |                                                 |
| \\      /  F ield         | OpenFOAM: The Open Source CFD Toolbox           |
|  \\    /   O peration     | Version:  5.x                                   |
|   \\  /    A nd           | Web:      www.OpenFOAM.org                      |
|    \\/     M anipulation  |                                                 |
\*---------------------------------------------------------------------------*/
FoamFile
{
    version     2.0;
    format      ascii;
    class       volVectorField;
    location    "0.4";
    object      U;
}
// * * * * * * * * * * * * * * * * * * * * * * * * * * * * * * * * * * * * * //

dimensions      [0 1 -1 0 0 0 0];

internalField   nonuniform List<vector> 
2268
(
(-0.0337078 0.00891076 0)
(-0.0447897 -0.00201387 0)
(-0.00655677 -0.0123256 0)
(0.0597922 -0.01714 0)
(0.134128 -0.0175819 0)
(0.205066 -0.0153586 0)
(0.264744 -0.0122002 0)
(0.310578 -0.00915869 0)
(0.34408 -0.00665585 0)
(0.368171 -0.00474175 0)
(0.385363 -0.00327981 0)
(0.397133 -0.00203884 0)
(0.403782 -0.000728157 0)
(0.404558 0.00167712 0)
(0.394428 0.00573163 0)
(0.368279 0.0122752 0)
(0.318118 0.0220939 0)
(0.233276 0.0334838 0)
(0.106026 0.0372736 0)
(-0.0218986 0.0194948 0)
(-0.144288 0.0192719 0)
(-0.236757 0.0105169 0)
(-0.0828783 -0.0583968 0)
(-0.0379753 0.0266524 0)
(-0.0424396 -0.00759869 0)
(-0.0035689 -0.0375326 0)
(0.063616 -0.0517403 0)
(0.137862 -0.0529205 0)
(0.208029 -0.0462382 0)
(0.26674 -0.0368333 0)
(0.311887 -0.0278193 0)
(0.345201 -0.0204312 0)
(0.369597 -0.0147882 0)
(0.38748 -0.0104663 0)
(0.400239 -0.00680473 0)
(0.40845 -0.0030336 0)
(0.411924 0.00196676 0)
(0.413018 0.00950827 0)
(0.411599 0.0211025 0)
(0.405179 0.0391983 0)
(0.383098 0.0652621 0)
(0.314951 0.0914924 0)
(0.176759 0.0961166 0)
(-0.0347529 0.075107 0)
(-0.169426 -0.00773531 0)
(0.00466407 -0.135354 0)
(-0.0350235 0.0438832 0)
(-0.0383408 -0.0141522 0)
(0.0019933 -0.0629826 0)
(0.069509 -0.0860736 0)
(0.142609 -0.0875373 0)
(0.210599 -0.0761949 0)
(0.2669 -0.0605811 0)
(0.310176 -0.0458092 0)
(0.342523 -0.0338406 0)
(0.366848 -0.024769 0)
(0.385367 -0.017821 0)
(0.399249 -0.0119193 0)
(0.408725 -0.00594871 0)
(0.413406 0.000841929 0)
(0.412474 0.00970223 0)
(0.405495 0.022423 0)
(0.39457 0.0422527 0)
(0.385374 0.0746487 0)
(0.37781 0.120026 0)
(0.329318 0.15912 0)
(0.198072 0.154936 0)
(0.0324702 0.0376027 0)
(0.0699379 -0.143636 0)
(-0.0322331 0.0592018 0)
(-0.0318525 -0.0216369 0)
(0.0100151 -0.0887943 0)
(0.0773743 -0.120041 0)
(0.148502 -0.121151 0)
(0.213348 -0.104907 0)
(0.266402 -0.0832421 0)
(0.307325 -0.0631242 0)
(0.338642 -0.0470675 0)
(0.363178 -0.0350066 0)
(0.382829 -0.025756 0)
(0.398402 -0.0178124 0)
(0.409883 -0.00974381 0)
(0.416701 -0.000232325 0)
(0.418022 0.0117671 0)
(0.412879 0.027689 0)
(0.40121 0.0492608 0)
(0.38513 0.079722 0)
(0.379723 0.125496 0)
(0.384042 0.182264 0)
(0.349862 0.20607 0)
(0.224285 0.0987336 0)
(0.14502 -0.0797629 0)
(-0.0291077 0.0719462 0)
(-0.0228759 -0.0308815 0)
(0.0200753 -0.114491 0)
(0.086442 -0.153004 0)
(0.154908 -0.153069 0)
(0.215967 -0.131748 0)
(0.265253 -0.104386 0)
(0.303583 -0.0795873 0)
(0.333959 -0.0601451 0)
(0.35904 -0.0456598 0)
(0.380268 -0.0344797 0)
(0.397992 -0.0246934 0)
(0.411853 -0.0145678 0)
(0.421127 -0.00267282 0)
(0.425027 0.0122128 0)
(0.422872 0.0312252 0)
(0.414621 0.0556701 0)
(0.400183 0.08638 0)
(0.385258 0.125804 0)
(0.387149 0.178892 0)
(0.400301 0.221894 0)
(0.321431 0.161525 0)
(0.191596 0.0142595 0)
(-0.0250034 0.081487 0)
(-0.0113311 -0.0419249 0)
(0.0314681 -0.139726 0)
(0.0953595 -0.184504 0)
(0.16068 -0.183045 0)
(0.217872 -0.156543 0)
(0.263503 -0.123891 0)
(0.29953 -0.0951751 0)
(0.329405 -0.0731572 0)
(0.355528 -0.0568784 0)
(0.378792 -0.0441527 0)
(0.399026 -0.032703 0)
(0.415502 -0.0205994 0)
(0.427308 -0.0063569 0)
(0.433652 0.0112544 0)
(0.434072 0.0331765 0)
(0.428739 0.0602955 0)
(0.418085 0.0930091 0)
(0.402961 0.130262 0)
(0.388238 0.174206 0)
(0.399868 0.224328 0)
(0.352447 0.216688 0)
(0.216098 0.137777 0)
(-0.0194068 0.0870656 0)
(0.00242748 -0.0543507 0)
(0.0437542 -0.164711 0)
(0.103555 -0.215192 0)
(0.16483 -0.212043 0)
(0.21811 -0.180229 0)
(0.26056 -0.142563 0)
(0.295009 -0.11056 0)
(0.325175 -0.086632 0)
(0.353045 -0.0690463 0)
(0.378896 -0.0550103 0)
(0.402044 -0.0418961 0)
(0.421436 -0.0276494 0)
(0.436003 -0.0108703 0)
(0.444837 0.00925469 0)
(0.447496 0.0337389 0)
(0.444272 0.0634254 0)
(0.435692 0.0984948 0)
(0.423885 0.137757 0)
(0.402934 0.178657 0)
(0.395909 0.230568 0)
(0.360373 0.264863 0)
(0.241595 0.262412 0)
(-0.0120641 0.0888168 0)
(0.01835 -0.0682798 0)
(0.0600762 -0.189915 0)
(0.114733 -0.244698 0)
(0.169717 -0.239504 0)
(0.217885 -0.202383 0)
(0.257064 -0.160173 0)
(0.290343 -0.125757 0)
(0.321253 -0.100783 0)
(0.351149 -0.0825298 0)
(0.379675 -0.06762 0)
(0.405719 -0.0531249 0)
(0.42805 -0.0368205 0)
(0.445551 -0.0171657 0)
(0.457473 0.00654693 0)
(0.463134 0.03403 0)
(0.462459 0.0656834 0)
(0.455436 0.101818 0)
(0.445195 0.142809 0)
(0.426726 0.185529 0)
(0.406554 0.240018 0)
(0.374126 0.308858 0)
(0.237984 0.414248 0)
(-0.0106185 -0.019607 0)
(0.248897 -0.0611805 0)
(0.467614 -0.0156299 0)
(0.426175 0.0194528 0)
(0.304298 0.0251146 0)
(0.173946 0.0243229 0)
(0.0631158 0.0237492 0)
(-0.0406484 0.0209174 0)
(-0.126214 0.0177156 0)
(-0.193713 0.0136868 0)
(-0.2395 0.00881239 0)
(-0.26422 0.00469665 0)
(-0.271979 0.000905856 0)
(-0.263435 -0.00301017 0)
(-0.240188 -0.00664426 0)
(-0.202698 -0.0103265 0)
(-0.149563 -0.0142479 0)
(-0.0834847 -0.01718 0)
(-0.0233969 -0.0122601 0)
(-0.0149869 -0.0640725 0)
(0.291417 -0.181727 0)
(0.507826 -0.0398567 0)
(0.454723 0.0692736 0)
(0.292878 0.0851255 0)
(0.124362 0.0788676 0)
(-0.000131764 0.0707625 0)
(-0.0985595 0.0577462 0)
(-0.166581 0.0459851 0)
(-0.214217 0.0334414 0)
(-0.240898 0.019485 0)
(-0.252641 0.00889194 0)
(-0.253247 -0.000343263 0)
(-0.241986 -0.00999551 0)
(-0.218533 -0.0188203 0)
(-0.183398 -0.0277092 0)
(-0.134532 -0.0371133 0)
(-0.0734736 -0.0440877 0)
(-0.0194326 -0.0311285 0)
(-0.0278721 -0.119482 0)
(0.337212 -0.332253 0)
(0.571316 -0.060248 0)
(0.473476 0.135476 0)
(0.279952 0.154108 0)
(0.114454 0.137445 0)
(-0.00145889 0.117392 0)
(-0.0929489 0.0912009 0)
(-0.160133 0.0705134 0)
(-0.213101 0.0504957 0)
(-0.246053 0.0278517 0)
(-0.261226 0.0116336 0)
(-0.263962 -0.00231141 0)
(-0.253177 -0.0176066 0)
(-0.229066 -0.0313068 0)
(-0.192526 -0.0453393 0)
(-0.141352 -0.0603861 0)
(-0.0773244 -0.0709687 0)
(-0.0203698 -0.0487117 0)
(-0.081709 -0.176601 0)
(0.349881 -0.50231 0)
(0.644712 -0.0865754 0)
(0.512604 0.216592 0)
(0.2843 0.227509 0)
(0.119698 0.196184 0)
(0.000402012 0.163976 0)
(-0.0958732 0.124961 0)
(-0.166201 0.0968612 0)
(-0.223052 0.0708852 0)
(-0.256959 0.0382071 0)
(-0.270524 0.0158199 0)
(-0.273754 -0.00284998 0)
(-0.263677 -0.0249288 0)
(-0.239273 -0.0441841 0)
(-0.201927 -0.0641902 0)
(-0.148608 -0.0857334 0)
(-0.0812815 -0.100516 0)
(-0.021334 -0.0687802 0)
(-0.148062 -0.208387 0)
(0.317758 -0.666004 0)
(0.695762 -0.104319 0)
(0.541374 0.314852 0)
(0.276733 0.306342 0)
(0.114321 0.256911 0)
(-0.0124304 0.21212 0)
(-0.11157 0.159939 0)
(-0.179626 0.123772 0)
(-0.237841 0.0927506 0)
(-0.27123 0.0471779 0)
(-0.281018 0.0189378 0)
(-0.28424 -0.00290643 0)
(-0.274732 -0.0324227 0)
(-0.249445 -0.0571677 0)
(-0.211092 -0.0835013 0)
(-0.155458 -0.111986 0)
(-0.0847191 -0.130977 0)
(-0.0220149 -0.0896256 0)
(-0.157185 -0.231279 0)
(0.257596 -0.885368 0)
(0.731226 -0.138102 0)
(0.555875 0.409822 0)
(0.246381 0.380068 0)
(0.0963745 0.320825 0)
(-0.0361215 0.263367 0)
(-0.134235 0.193618 0)
(-0.196327 0.147068 0)
(-0.256519 0.113415 0)
(-0.289942 0.052847 0)
(-0.293236 0.0213104 0)
(-0.296808 -0.00254615 0)
(-0.288401 -0.0407296 0)
(-0.261818 -0.0705605 0)
(-0.222246 -0.103532 0)
(-0.16345 -0.139508 0)
(-0.0886347 -0.162688 0)
(-0.0227552 -0.111329 0)
(-0.00223945 -0.286473 0)
(0.215196 -1.14277 0)
(0.659628 -0.163561 0)
(0.52336 0.538563 0)
(0.190846 0.467974 0)
(0.072392 0.380636 0)
(-0.0686628 0.307674 0)
(-0.163569 0.228595 0)
(-0.214925 0.178169 0)
(-0.277108 0.148531 0)
(-0.309982 0.0650223 0)
(-0.303835 0.0183177 0)
(-0.308929 -0.000473575 0)
(-0.302893 -0.0495019 0)
(-0.274924 -0.0838081 0)
(-0.236106 -0.124345 0)
(-0.173237 -0.168486 0)
(-0.0935384 -0.195622 0)
(-0.0237749 -0.13402 0)
(0.394119 -0.365936 0)
(0.180656 -1.30658 0)
(0.50026 -0.261245 0)
(0.389157 0.602294 0)
(0.112998 0.515601 0)
(0.050582 0.453322 0)
(-0.095986 0.376864 0)
(-0.184985 0.258239 0)
(-0.225525 0.169177 0)
(-0.295604 0.146046 0)
(-0.338614 0.0387965 0)
(-0.314258 0.0126551 0)
(-0.31541 0.00613974 0)
(-0.316953 -0.0571261 0)
(-0.284493 -0.0962573 0)
(-0.251008 -0.14676 0)
(-0.184914 -0.200973 0)
(-0.0994188 -0.231662 0)
(-0.0254006 -0.158809 0)
(0.00141101 0.0751316 0)
(0.052208 -0.0964761 0)
(0.10834 -0.226425 0)
(0.153448 -0.280493 0)
(0.189555 -0.271412 0)
(0.224316 -0.228898 0)
(0.257628 -0.182747 0)
(0.289933 -0.146952 0)
(0.322599 -0.121867 0)
(0.35551 -0.103348 0)
(0.387189 -0.0874248 0)
(0.415975 -0.0711849 0)
(0.440561 -0.0526954 0)
(0.460233 -0.0306542 0)
(0.474745 -0.00339976 0)
(0.484048 0.0310066 0)
(0.48803 0.0713713 0)
(0.486349 0.114462 0)
(0.479847 0.159604 0)
(0.470425 0.206134 0)
(0.456625 0.262153 0)
(0.467787 0.332529 0)
(0.467942 0.506072 0)
(0.0205549 0.0287243 0)
(0.122275 -0.153422 0)
(0.213574 -0.271552 0)
(0.240171 -0.312942 0)
(0.234371 -0.299121 0)
(0.242582 -0.258037 0)
(0.268484 -0.214902 0)
(0.302744 -0.181209 0)
(0.340792 -0.156693 0)
(0.379973 -0.136756 0)
(0.416842 -0.117003 0)
(0.448967 -0.0948266 0)
(0.474674 -0.0692734 0)
(0.493758 -0.0409139 0)
(0.506975 -0.01103 0)
(0.516265 0.0197605 0)
(0.520982 0.0559804 0)
(0.521563 0.097833 0)
(0.520325 0.14379 0)
(0.521926 0.194174 0)
(0.522905 0.252126 0)
(0.5391 0.307723 0)
(0.566586 0.400535 0)
(0.0439203 -0.0752158 0)
(0.218924 -0.270982 0)
(0.338878 -0.335648 0)
(0.323972 -0.321584 0)
(0.257761 -0.299236 0)
(0.236611 -0.280988 0)
(0.25641 -0.260694 0)
(0.293231 -0.239352 0)
(0.337476 -0.219364 0)
(0.384093 -0.199571 0)
(0.430097 -0.177003 0)
(0.473518 -0.149644 0)
(0.511894 -0.116613 0)
(0.542944 -0.0774556 0)
(0.562186 -0.0316603 0)
(0.565597 0.021131 0)
(0.558891 0.0786954 0)
(0.546962 0.133291 0)
(0.539689 0.176946 0)
(0.543773 0.217544 0)
(0.55373 0.259216 0)
(0.56739 0.294983 0)
(0.584454 0.330112 0)
(0.0847138 -0.220975 0)
(0.271113 -0.459029 0)
(0.372908 -0.392627 0)
(0.252582 -0.237748 0)
(0.147177 -0.220047 0)
(0.118782 -0.255766 0)
(0.113002 -0.269017 0)
(0.122466 -0.264486 0)
(0.147462 -0.250692 0)
(0.177026 -0.232713 0)
(0.219907 -0.211056 0)
(0.274938 -0.182729 0)
(0.342036 -0.14633 0)
(0.414958 -0.101684 0)
(0.498428 -0.0494396 0)
(0.576673 0.00354981 0)
(0.62043 0.0494791 0)
(0.635258 0.0878393 0)
(0.635228 0.126179 0)
(0.623592 0.178228 0)
(0.609186 0.2339 0)
(0.602059 0.277223 0)
(0.60666 0.310111 0)
(0.0386467 -0.502714 0)
(0.118423 -0.622359 0)
(0.0803372 -0.267436 0)
(-0.0259982 -0.0863521 0)
(-0.0244034 -0.147481 0)
(-0.0341291 -0.214503 0)
(-0.0684015 -0.227002 0)
(-0.098437 -0.234787 0)
(-0.127547 -0.230558 0)
(-0.157824 -0.226289 0)
(-0.162991 -0.224822 0)
(-0.160469 -0.214394 0)
(-0.171424 -0.188642 0)
(-0.239814 -0.154276 0)
(-0.280573 -0.118631 0)
(-0.308422 -0.0665143 0)
(0.0788505 0.0304496 0)
(0.4354 0.116305 0)
(0.582111 0.159348 0)
(0.629583 0.205765 0)
(0.645347 0.248197 0)
(0.657687 0.284443 0)
(0.66321 0.316603 0)
(-0.0657711 -0.458304 0)
(-0.18168 -0.261935 0)
(-0.19001 -0.154842 0)
(-0.132855 -0.172578 0)
(-0.0698892 -0.198791 0)
(-0.0658724 -0.21268 0)
(-0.0828223 -0.209248 0)
(-0.106264 -0.207423 0)
(-0.13212 -0.202567 0)
(-0.147573 -0.213874 0)
(-0.15256 -0.225033 0)
(-0.15644 -0.203619 0)
(-0.18835 -0.122119 0)
(-0.290094 -0.0442176 0)
(-0.296112 -0.124559 0)
(-0.112202 -0.366293 0)
(0.0114205 -0.488017 0)
(0.15961 -0.337097 0)
(0.372336 -0.0182036 0)
(0.504863 0.182244 0)
(0.548852 0.242253 0)
(0.614947 0.270167 0)
(0.655883 0.306857 0)
(-0.108325 -0.269475 0)
(-0.14797 -0.407094 0)
(-0.135777 -0.337237 0)
(-0.0927089 -0.239672 0)
(-0.0867763 -0.213161 0)
(-0.0830042 -0.21071 0)
(-0.0925671 -0.204594 0)
(-0.104819 -0.198533 0)
(-0.116247 -0.202822 0)
(-0.124061 -0.219873 0)
(-0.127657 -0.232864 0)
(-0.132082 -0.201607 0)
(-0.130072 -0.0925307 0)
(-0.174078 -0.0237878 0)
(-0.0947719 -0.223548 0)
(0.0192542 -0.464687 0)
(0.0615919 -0.475303 0)
(0.159691 -0.401541 0)
(0.30812 -0.291741 0)
(0.575303 -0.0541377 0)
(0.765123 0.202937 0)
(0.801926 0.210406 0)
(0.697999 0.249133 0)
(-0.0549097 -0.205973 0)
(-0.055113 -0.368626 0)
(-0.0805836 -0.286026 0)
(-0.0791701 -0.242478 0)
(-0.0770707 -0.217877 0)
(-0.0736769 -0.20834 0)
(-0.0762421 -0.196821 0)
(-0.0813576 -0.187845 0)
(-0.0884067 -0.189923 0)
(-0.098653 -0.204884 0)
(-0.109953 -0.216334 0)
(-0.119542 -0.193158 0)
(-0.0945233 -0.102299 0)
(-0.0606231 -0.0525054 0)
(0.0502215 -0.298785 0)
(0.0286865 -0.483844 0)
(-0.00351124 -0.543652 0)
(0.0483622 -0.507843 0)
(0.139344 -0.427003 0)
(0.308693 -0.292519 0)
(0.596544 -0.0281014 0)
(0.801365 0.20758 0)
(0.838099 0.365498 0)
(-0.021295 -0.160227 0)
(-0.0385989 -0.334813 0)
(-0.0606834 -0.276883 0)
(-0.0623709 -0.238854 0)
(-0.0624677 -0.220323 0)
(-0.0609076 -0.209253 0)
(-0.0607804 -0.195903 0)
(-0.0613195 -0.183775 0)
(-0.0639094 -0.18178 0)
(-0.0717659 -0.192244 0)
(-0.0825114 -0.204488 0)
(-0.0908768 -0.20296 0)
(-0.0671512 -0.165743 0)
(0.0179389 -0.150171 0)
(0.0770965 -0.290935 0)
(0.0311848 -0.408014 0)
(-0.0296407 -0.492215 0)
(-0.0640448 -0.516425 0)
(-0.0353374 -0.50508 0)
(-0.0010024 -0.466792 0)
(0.141706 -0.284632 0)
(0.422988 0.0506925 0)
(0.600637 0.306293 0)
(-0.00756125 -0.138056 0)
(-0.0269649 -0.320583 0)
(-0.0433394 -0.27157 0)
(-0.0474148 -0.235617 0)
(-0.049677 -0.220226 0)
(-0.0495373 -0.209716 0)
(-0.0482299 -0.197285 0)
(-0.0448919 -0.184995 0)
(-0.0414123 -0.179675 0)
(-0.0416616 -0.184981 0)
(-0.0450593 -0.195926 0)
(-0.0469196 -0.207759 0)
(-0.0356932 -0.210404 0)
(0.0207876 -0.218042 0)
(0.0513461 -0.290632 0)
(0.0405051 -0.374318 0)
(-0.00742663 -0.443212 0)
(-0.0557868 -0.491902 0)
(-0.0750641 -0.520897 0)
(-0.102936 -0.4697 0)
(-0.132113 -0.372155 0)
(-0.0702116 -0.160681 0)
(0.120373 0.131901 0)
(-0.00165963 -0.125119 0)
(-0.0161035 -0.303282 0)
(-0.0310116 -0.260801 0)
(-0.0363998 -0.23124 0)
(-0.0389973 -0.219036 0)
(-0.0394166 -0.210426 0)
(-0.0375816 -0.200627 0)
(-0.0325248 -0.190505 0)
(-0.0253006 -0.18443 0)
(-0.0190799 -0.186363 0)
(-0.0151815 -0.19571 0)
(-0.0115691 -0.210739 0)
(-0.00584104 -0.228829 0)
(0.013246 -0.249338 0)
(0.0315942 -0.301695 0)
(0.0197243 -0.353262 0)
(-0.0181323 -0.403616 0)
(-0.0597704 -0.456478 0)
(-0.110156 -0.499442 0)
(-0.146018 -0.441238 0)
(-0.181408 -0.318377 0)
(-0.254153 -0.181569 0)
(-0.206054 -0.000513547 0)
(0.000831776 -0.118902 0)
(-0.0101756 -0.290205 0)
(-0.0225807 -0.252253 0)
(-0.0276901 -0.226585 0)
(-0.0306417 -0.217271 0)
(-0.031469 -0.2109 0)
(-0.030093 -0.204047 0)
(-0.0256604 -0.197157 0)
(-0.0183062 -0.192679 0)
(-0.0100785 -0.193765 0)
(-0.00316118 -0.201559 0)
(0.00184872 -0.215455 0)
(0.00472198 -0.234073 0)
(0.00781457 -0.25849 0)
(0.0042858 -0.29289 0)
(-0.0149269 -0.328031 0)
(-0.0471006 -0.361189 0)
(-0.098021 -0.40039 0)
(-0.176527 -0.440026 0)
(-0.236414 -0.421073 0)
(-0.235744 -0.322072 0)
(-0.188405 -0.186938 0)
(-0.138305 -0.0849559 0)
(0.00174435 -0.115476 0)
(-0.00674012 -0.279897 0)
(-0.0168528 -0.244602 0)
(-0.0215531 -0.222321 0)
(-0.0244806 -0.215245 0)
(-0.0257186 -0.210783 0)
(-0.0252482 -0.206301 0)
(-0.0225694 -0.202266 0)
(-0.0175254 -0.19999 0)
(-0.0112059 -0.201411 0)
(-0.0056084 -0.207673 0)
(-0.00249661 -0.218772 0)
(-0.00255846 -0.233961 0)
(-0.00720854 -0.252608 0)
(-0.0192126 -0.276427 0)
(-0.0416788 -0.300168 0)
(-0.0734321 -0.319878 0)
(-0.119571 -0.33826 0)
(-0.194712 -0.354899 0)
(-0.28627 -0.353871 0)
(-0.358645 -0.314447 0)
(-0.380249 -0.228743 0)
(-0.349024 -0.115328 0)
(0.00175703 -0.113582 0)
(-0.00476255 -0.271538 0)
(-0.0129891 -0.238157 0)
(-0.0172091 -0.218369 0)
(-0.0200569 -0.213062 0)
(-0.0216557 -0.21003 0)
(-0.0220374 -0.207103 0)
(-0.0211062 -0.204857 0)
(-0.0188509 -0.204115 0)
(-0.0158324 -0.205822 0)
(-0.0134153 -0.21073 0)
(-0.0131377 -0.218955 0)
(-0.0161909 -0.230022 0)
(-0.0235719 -0.243409 0)
(-0.0367386 -0.258842 0)
(-0.0572385 -0.274149 0)
(-0.0849988 -0.28609 0)
(-0.119332 -0.293156 0)
(-0.161472 -0.294221 0)
(-0.213874 -0.28372 0)
(-0.270553 -0.25784 0)
(-0.317998 -0.215284 0)
(-0.34434 -0.153526 0)
(0.0014038 -0.112268 0)
(-0.00366142 -0.264891 0)
(-0.010369 -0.232713 0)
(-0.0141842 -0.214759 0)
(-0.0169364 -0.210757 0)
(-0.0188157 -0.208748 0)
(-0.0198632 -0.206771 0)
(-0.0201877 -0.20542 0)
(-0.01997 -0.205311 0)
(-0.0196337 -0.206894 0)
(-0.0199921 -0.210549 0)
(-0.0220861 -0.216323 0)
(-0.0268917 -0.223974 0)
(-0.0353001 -0.23294 0)
(-0.0481453 -0.242586 0)
(-0.0664625 -0.251382 0)
(-0.0905966 -0.25734 0)
(-0.120339 -0.259149 0)
(-0.155273 -0.253727 0)
(-0.192804 -0.236997 0)
(-0.228736 -0.206814 0)
(-0.258528 -0.163038 0)
(-0.277487 -0.11046 0)
(0.0010311 -0.111163 0)
(-0.00303454 -0.259488 0)
(-0.00861233 -0.228045 0)
(-0.0120837 -0.211451 0)
(-0.0147432 -0.208378 0)
(-0.0168233 -0.20708 0)
(-0.018362 -0.205687 0)
(-0.0195035 -0.204731 0)
(-0.0205081 -0.204696 0)
(-0.0217574 -0.205852 0)
(-0.0237872 -0.208345 0)
(-0.0272686 -0.212158 0)
(-0.03286 -0.217055 0)
(-0.0413693 -0.222547 0)
(-0.0533647 -0.227886 0)
(-0.0692198 -0.23197 0)
(-0.0891981 -0.233294 0)
(-0.113121 -0.230539 0)
(-0.140123 -0.222206 0)
(-0.168312 -0.206661 0)
(-0.194575 -0.182899 0)
(-0.215343 -0.150726 0)
(-0.227198 -0.111177 0)
(0.000735631 -0.110143 0)
(-0.00264816 -0.254993 0)
(-0.0074226 -0.223957 0)
(-0.0105981 -0.208395 0)
(-0.0131633 -0.205967 0)
(-0.0153728 -0.205127 0)
(-0.0172686 -0.204085 0)
(-0.0189681 -0.203289 0)
(-0.0207029 -0.203107 0)
(-0.0228023 -0.203706 0)
(-0.0256819 -0.205132 0)
(-0.0297969 -0.207325 0)
(-0.0356285 -0.209993 0)
(-0.0437744 -0.212809 0)
(-0.0545756 -0.214999 0)
(-0.0681633 -0.215736 0)
(-0.0846094 -0.2139 0)
(-0.103541 -0.208469 0)
(-0.124088 -0.198298 0)
(-0.144837 -0.182567 0)
(-0.163756 -0.160907 0)
(-0.178619 -0.133434 0)
(-0.187082 -0.101182 0)
(0.000558747 -0.10918 0)
(-0.00235533 -0.251126 0)
(-0.00658748 -0.220296 0)
(-0.00950345 -0.205556 0)
(-0.0119708 -0.203566 0)
(-0.0142385 -0.202984 0)
(-0.0163618 -0.202116 0)
(-0.0184335 -0.201342 0)
(-0.0206304 -0.200936 0)
(-0.0232008 -0.20098 0)
(-0.0264914 -0.201455 0)
(-0.0307949 -0.20229 0)
(-0.0365061 -0.203226 0)
(-0.0440227 -0.203912 0)
(-0.0534985 -0.203778 0)
(-0.0649789 -0.202126 0)
(-0.078421 -0.198119 0)
(-0.0933846 -0.191071 0)
(-0.109075 -0.180246 0)
(-0.124478 -0.165329 0)
(-0.138159 -0.146338 0)
(-0.148737 -0.123276 0)
(-0.154596 -0.0965515 0)
(0.000507919 -0.10831 0)
(-0.00207504 -0.247683 0)
(-0.00596669 -0.216959 0)
(-0.0086433 -0.202913 0)
(-0.010998 -0.201216 0)
(-0.0132571 -0.200748 0)
(-0.0154827 -0.199921 0)
(-0.017753 -0.19908 0)
(-0.0202021 -0.198414 0)
(-0.0229946 -0.197947 0)
(-0.0264123 -0.197645 0)
(-0.0306683 -0.19738 0)
(-0.0359751 -0.19695 0)
(-0.0426565 -0.196059 0)
(-0.0507814 -0.194227 0)
(-0.0602345 -0.190909 0)
(-0.071004 -0.185605 0)
(-0.0826355 -0.177693 0)
(-0.0944441 -0.166784 0)
(-0.105781 -0.152744 0)
(-0.115602 -0.135791 0)
(-0.123057 -0.115851 0)
(-0.12696 -0.0929731 0)
(0.000563597 -0.107588 0)
(-0.00178162 -0.244519 0)
(-0.00546712 -0.213874 0)
(-0.00790595 -0.200454 0)
(-0.0101304 -0.198958 0)
(-0.0123191 -0.198511 0)
(-0.014549 -0.197649 0)
(-0.0168655 -0.196688 0)
(-0.0193655 -0.195759 0)
(-0.0221935 -0.194845 0)
(-0.0255311 -0.193912 0)
(-0.0294808 -0.192801 0)
(-0.0342719 -0.191357 0)
(-0.0400535 -0.189332 0)
(-0.0467659 -0.186319 0)
(-0.0544429 -0.181906 0)
(-0.0629176 -0.175812 0)
(-0.0717615 -0.167488 0)
(-0.0805275 -0.156778 0)
(-0.0887801 -0.14366 0)
(-0.0957106 -0.128362 0)
(-0.100798 -0.110819 0)
(-0.103169 -0.0908362 0)
(0.000710109 -0.107082 0)
(-0.00146132 -0.241535 0)
(-0.00503121 -0.210986 0)
(-0.00722642 -0.19818 0)
(-0.00930104 -0.196822 0)
(-0.0113718 -0.196349 0)
(-0.0135213 -0.195417 0)
(-0.0157678 -0.194313 0)
(-0.0181732 -0.193141 0)
(-0.020857 -0.191878 0)
(-0.0239497 -0.190441 0)
(-0.0275185 -0.1887 0)
(-0.0316755 -0.186545 0)
(-0.0365045 -0.183689 0)
(-0.0419313 -0.179903 0)
(-0.0479895 -0.174861 0)
(-0.0545149 -0.168287 0)
(-0.0611033 -0.159894 0)
(-0.0674662 -0.149531 0)
(-0.0732532 -0.137304 0)
(-0.0778758 -0.123361 0)
(-0.081107 -0.107669 0)
(-0.0821726 -0.0898692 0)
(0.000915824 -0.106847 0)
(-0.00111751 -0.238654 0)
(-0.00461916 -0.208282 0)
(-0.0065652 -0.196099 0)
(-0.00847038 -0.194844 0)
(-0.010385 -0.194317 0)
(-0.0123829 -0.193303 0)
(-0.0144721 -0.192071 0)
(-0.0166998 -0.190701 0)
(-0.0191397 -0.189164 0)
(-0.021868 -0.18736 0)
(-0.0249424 -0.185175 0)
(-0.0284214 -0.182486 0)
(-0.0323356 -0.179101 0)
(-0.0365998 -0.174821 0)
(-0.0412175 -0.169462 0)
(-0.0460614 -0.16272 0)
(-0.0507609 -0.154443 0)
(-0.0551428 -0.144549 0)
(-0.0589675 -0.133083 0)
(-0.0617281 -0.120286 0)
(-0.0634152 -0.106049 0)
(-0.0633265 -0.0899523 0)
(0.00115169 -0.106923 0)
(-0.000767988 -0.235833 0)
(-0.00420168 -0.205765 0)
(-0.00588795 -0.194221 0)
(-0.00761186 -0.193053 0)
(-0.0093401 -0.192457 0)
(-0.0111442 -0.191372 0)
(-0.01302 -0.190042 0)
(-0.0149963 -0.188529 0)
(-0.0171151 -0.186785 0)
(-0.0194223 -0.184722 0)
(-0.021954 -0.182242 0)
(-0.0247343 -0.179224 0)
(-0.0277667 -0.175517 0)
(-0.0309914 -0.170987 0)
(-0.0343478 -0.165498 0)
(-0.0377102 -0.158798 0)
(-0.0408551 -0.150769 0)
(-0.0435734 -0.141396 0)
(-0.0457161 -0.130642 0)
(-0.0469457 -0.118821 0)
(-0.0473162 -0.105763 0)
(-0.0461538 -0.0910205 0)
(0.00138791 -0.107325 0)
(-0.000415053 -0.23308 0)
(-0.00374885 -0.20343 0)
(-0.00516362 -0.192556 0)
(-0.006702 -0.191463 0)
(-0.00822499 -0.190803 0)
(-0.00980709 -0.189663 0)
(-0.0114334 -0.188267 0)
(-0.0131169 -0.186656 0)
(-0.0148738 -0.184782 0)
(-0.0167306 -0.182568 0)
(-0.0187047 -0.179927 0)
(-0.0207941 -0.176746 0)
(-0.0230107 -0.172894 0)
(-0.0252845 -0.168298 0)
(-0.0275132 -0.162812 0)
(-0.0296025 -0.156284 0)
(-0.0313903 -0.148609 0)
(-0.0326786 -0.139715 0)
(-0.0334176 -0.129709 0)
(-0.0333356 -0.118741 0)
(-0.0325097 -0.106681 0)
(-0.0303122 -0.0930487 0)
(0.0015932 -0.108049 0)
(-3.67321e-05 -0.230437 0)
(-0.00321757 -0.201305 0)
(-0.0043708 -0.191102 0)
(-0.0057154 -0.190082 0)
(-0.00702309 -0.189373 0)
(-0.00836767 -0.188203 0)
(-0.00972423 -0.186776 0)
(-0.0110946 -0.185121 0)
(-0.0124838 -0.183188 0)
(-0.0138996 -0.180913 0)
(-0.0153327 -0.178214 0)
(-0.0167595 -0.174985 0)
(-0.018213 -0.171155 0)
(-0.0196154 -0.166608 0)
(-0.0208363 -0.161254 0)
(-0.021815 -0.154986 0)
(-0.0223984 -0.147713 0)
(-0.0224951 -0.139388 0)
(-0.0220193 -0.130076 0)
(-0.0207246 -0.1199 0)
(-0.0188068 -0.108724 0)
(-0.0155728 -0.0960739 0)
(0.00176719 -0.109086 0)
(0.000391543 -0.227969 0)
(-0.00257604 -0.199418 0)
(-0.00348291 -0.189852 0)
(-0.00463828 -0.18891 0)
(-0.00572324 -0.188172 0)
(-0.00682534 -0.187 0)
(-0.00790733 -0.185581 0)
(-0.00896429 -0.183933 0)
(-0.00998944 -0.182008 0)
(-0.0109766 -0.179745 0)
(-0.0118918 -0.177073 0)
(-0.0127384 -0.173892 0)
(-0.013504 -0.170187 0)
(-0.014093 -0.165799 0)
(-0.0144209 -0.160681 0)
(-0.0144171 -0.154754 0)
(-0.0139871 -0.147963 0)
(-0.0130099 -0.140219 0)
(-0.011439 -0.13158 0)
(-0.00907278 -0.122164 0)
(-0.00611767 -0.111863 0)
(-0.00187708 -0.100116 0)
(0.00193843 -0.110453 0)
(0.000904953 -0.225756 0)
(-0.00181977 -0.197774 0)
(-0.00250168 -0.188803 0)
(-0.00347196 -0.187947 0)
(-0.00432758 -0.187204 0)
(-0.00518473 -0.186055 0)
(-0.0059919 -0.184676 0)
(-0.00674089 -0.183077 0)
(-0.0074158 -0.181212 0)
(-0.00800092 -0.179025 0)
(-0.00844108 -0.17645 0)
(-0.00875906 -0.173438 0)
(-0.00891259 -0.169906 0)
(-0.00878183 -0.16577 0)
(-0.0083211 -0.160971 0)
(-0.0074816 -0.155469 0)
(-0.00611856 -0.149195 0)
(-0.00419669 -0.142074 0)
(-0.00167002 -0.134134 0)
(0.00166801 -0.125447 0)
(0.00559471 -0.116009 0)
(0.0108479 -0.105154 0)
(0.00215449 -0.112198 0)
(0.00152295 -0.223828 0)
(-0.000979492 -0.19637 0)
(-0.00146009 -0.187972 0)
(-0.00224741 -0.187206 0)
(-0.00286297 -0.186477 0)
(-0.00347093 -0.185374 0)
(-0.00400104 -0.184062 0)
(-0.00444403 -0.182546 0)
(-0.00477593 -0.180786 0)
(-0.00497132 -0.178723 0)
(-0.00499768 -0.176315 0)
(-0.00483062 -0.173528 0)
(-0.0044094 -0.170247 0)
(-0.0036484 -0.166435 0)
(-0.00250631 -0.162041 0)
(-0.000912663 -0.15702 0)
(0.00123745 -0.151294 0)
(0.00400541 -0.144859 0)
(0.0074519 -0.137614 0)
(0.0116836 -0.129686 0)
(0.016531 -0.121084 0)
(0.022736 -0.111167 0)
(0.00247098 -0.114403 0)
(0.00222848 -0.222175 0)
(-0.000152883 -0.195192 0)
(-0.00041832 -0.187351 0)
(-0.00100442 -0.186687 0)
(-0.00137987 -0.185997 0)
(-0.00173524 -0.184963 0)
(-0.00198298 -0.183743 0)
(-0.00211616 -0.182339 0)
(-0.00209943 -0.180717 0)
(-0.0019191 -0.178834 0)
(-0.00154082 -0.176647 0)
(-0.000904405 -0.174108 0)
(4.2849e-05 -0.171149 0)
(0.0013695 -0.167727 0)
(0.00313886 -0.163802 0)
(0.00542395 -0.159311 0)
(0.00830968 -0.154211 0)
(0.0118686 -0.148445 0)
(0.0161673 -0.141954 0)
(0.0212801 -0.134806 0)
(0.0270606 -0.127079 0)
(0.0342234 -0.118152 0)
(0.00290621 -0.117149 0)
(0.00296388 -0.220726 0)
(0.000589081 -0.194192 0)
(0.000575572 -0.18691 0)
(0.000173792 -0.18638 0)
(3.98657e-05 -0.185756 0)
(-6.08748e-05 -0.184816 0)
(-2.2856e-05 -0.183715 0)
(0.000161418 -0.182454 0)
(0.000519403 -0.181002 0)
(0.00107927 -0.179336 0)
(0.00188135 -0.177402 0)
(0.00298018 -0.175164 0)
(0.00443595 -0.172575 0)
(0.00631544 -0.169595 0)
(0.00869106 -0.16618 0)
(0.0116409 -0.162282 0)
(0.0152528 -0.157853 0)
(0.0196027 -0.152827 0)
(0.0247728 -0.147141 0)
(0.0308368 -0.140831 0)
(0.0376776 -0.134022 0)
(0.0459486 -0.126153 0)
(0.00345377 -0.120497 0)
(0.0036805 -0.219345 0)
(0.00117537 -0.193298 0)
(0.00145072 -0.186647 0)
(0.00119475 -0.186272 0)
(0.00129138 -0.185735 0)
(0.00142814 -0.18492 0)
(0.00173571 -0.183969 0)
(0.00222213 -0.182882 0)
(0.00291386 -0.18164 0)
(0.00384478 -0.180214 0)
(0.00505894 -0.178572 0)
(0.00661115 -0.17668 0)
(0.00856474 -0.174505 0)
(0.0109896 -0.172012 0)
(0.0139663 -0.169162 0)
(0.017582 -0.165915 0)
(0.0219372 -0.162223 0)
(0.0271197 -0.158021 0)
(0.0332432 -0.153237 0)
(0.0404084 -0.147883 0)
(0.0485469 -0.14209 0)
(0.0582529 -0.135394 0)
(0.00410738 -0.124524 0)
(0.00434145 -0.217882 0)
(0.00153463 -0.192492 0)
(0.00213076 -0.186575 0)
(0.00195652 -0.186363 0)
(0.00224406 -0.185933 0)
(0.00256917 -0.185269 0)
(0.00309453 -0.184498 0)
(0.00382937 -0.183621 0)
(0.00480068 -0.18262 0)
(0.00604663 -0.181476 0)
(0.00761467 -0.180164 0)
(0.0095619 -0.178662 0)
(0.0119559 -0.176946 0)
(0.0148731 -0.174992 0)
(0.0184036 -0.17277 0)
(0.0226485 -0.170249 0)
(0.0277272 -0.167386 0)
(0.0337525 -0.164129 0)
(0.0408846 -0.160407 0)
(0.0492741 -0.156211 0)
(0.0589243 -0.151642 0)
(0.0704267 -0.146347 0)
(0.00486029 -0.129316 0)
(0.00491229 -0.216177 0)
(0.00161482 -0.191768 0)
(0.00255042 -0.186704 0)
(0.00235754 -0.186649 0)
(0.00276577 -0.186339 0)
(0.00319441 -0.185849 0)
(0.00384463 -0.185284 0)
(0.00472626 -0.184644 0)
(0.00586649 -0.183918 0)
(0.00730746 -0.183091 0)
(0.00910055 -0.182149 0)
(0.0113066 -0.181081 0)
(0.0139991 -0.179875 0)
(0.0172635 -0.17852 0)
(0.0212007 -0.176999 0)
(0.0259302 -0.175295 0)
(0.0315921 -0.173379 0)
(0.0383356 -0.171223 0)
(0.0463704 -0.168775 0)
(0.0559062 -0.16602 0)
(0.0670355 -0.163008 0)
(0.0804278 -0.159495 0)
(0.00567026 -0.134833 0)
(0.0053469 -0.213958 0)
(0.00140631 -0.191012 0)
(0.00267961 -0.186911 0)
(0.00234272 -0.186992 0)
(0.00278289 -0.18681 0)
(0.00320969 -0.186504 0)
(0.00386614 -0.18616 0)
(0.00476132 -0.185775 0)
(0.00592175 -0.185341 0)
(0.0073926 -0.184853 0)
(0.00922857 -0.184306 0)
(0.0114941 -0.183702 0)
(0.0142686 -0.183046 0)
(0.0176462 -0.18234 0)
(0.0217384 -0.181585 0)
(0.0266812 -0.180781 0)
(0.0326334 -0.179927 0)
(0.0397803 -0.179025 0)
(0.0483691 -0.178061 0)
(0.0586594 -0.177038 0)
(0.0708378 -0.17597 0)
(0.0856952 -0.174715 0)
(0.00643319 -0.140783 0)
(0.00559358 -0.210849 0)
(0.000968533 -0.189947 0)
(0.00254983 -0.186881 0)
(0.00195429 -0.187063 0)
(0.00234522 -0.187009 0)
(0.00267406 -0.186889 0)
(0.00322669 -0.18676 0)
(0.00400963 -0.186625 0)
(0.00504808 -0.186479 0)
(0.00638806 -0.186324 0)
(0.00808534 -0.18617 0)
(0.0102062 -0.186035 0)
(0.0128333 -0.185936 0)
(0.0160653 -0.185896 0)
(0.0200204 -0.185934 0)
(0.0248432 -0.186073 0)
(0.0307039 -0.186345 0)
(0.0378105 -0.186791 0)
(0.0464238 -0.187446 0)
(0.0568307 -0.18835 0)
(0.0692971 -0.189527 0)
(0.084696 -0.190952 0)
(0.00701233 -0.147055 0)
(0.00562541 -0.206881 0)
(0.000426712 -0.188627 0)
(0.00224805 -0.1866 0)
(0.00133687 -0.186855 0)
(0.00163111 -0.186925 0)
(0.0018044 -0.18698 0)
(0.00218636 -0.187052 0)
(0.0027778 -0.187146 0)
(0.00360207 -0.187267 0)
(0.00470353 -0.187426 0)
(0.00613671 -0.187649 0)
(0.00796742 -0.187966 0)
(0.0102769 -0.188411 0)
(0.0131625 -0.189024 0)
(0.0167407 -0.189846 0)
(0.0211549 -0.190927 0)
(0.0265765 -0.192334 0)
(0.0332163 -0.194147 0)
(0.0413233 -0.19645 0)
(0.0511872 -0.199334 0)
(0.0631124 -0.202876 0)
(0.0779532 -0.20718 0)
(0.00725525 -0.154244 0)
(0.00542209 -0.202941 0)
(-7.71389e-05 -0.187896 0)
(0.00186225 -0.186856 0)
(0.000670951 -0.18716 0)
(0.000861097 -0.187354 0)
(0.000868373 -0.187576 0)
(0.00106569 -0.187833 0)
(0.00144387 -0.18814 0)
(0.00202476 -0.18851 0)
(0.00284963 -0.18897 0)
(0.00397022 -0.189553 0)
(0.00544922 -0.190303 0)
(0.00736195 -0.191269 0)
(0.0097974 -0.192508 0)
(0.0128622 -0.194082 0)
(0.0166902 -0.19607 0)
(0.0214448 -0.19857 0)
(0.0273218 -0.201696 0)
(0.034544 -0.20558 0)
(0.0433852 -0.210364 0)
(0.0541434 -0.216198 0)
(0.0675786 -0.223287 0)
(0.0069582 -0.162143 0)
(0.00491455 -0.199352 0)
(-0.000428922 -0.1879 0)
(0.00143788 -0.187729 0)
(9.96287e-05 -0.188059 0)
(0.000200294 -0.188365 0)
(6.35995e-05 -0.188738 0)
(0.000100718 -0.189158 0)
(0.000287331 -0.189652 0)
(0.000645965 -0.190244 0)
(0.00121246 -0.19097 0)
(0.00203256 -0.191875 0)
(0.00316267 -0.193011 0)
(0.00466955 -0.19444 0)