/*--------------------------------*- C++ -*----------------------------------*\
| =========                 |                                                 |
| \\      /  F ield         | OpenFOAM: The Open Source CFD Toolbox           |
|  \\    /   O peration     | Version:  5.x                                   |
|   \\  /    A nd           | Web:      www.OpenFOAM.org                      |
|    \\/     M anipulation  |                                                 |
\*---------------------------------------------------------------------------*/
FoamFile
{
    version     2.0;
    format      ascii;
    class       volScalarField;
    location    "0.1";
    object      alpha.water;
}
// * * * * * * * * * * * * * * * * * * * * * * * * * * * * * * * * * * * * * //

dimensions      [0 0 0 0 0 0 0];

internalField   nonuniform List<scalar> 
8000
(
1
1
1
1
1
1
1
1
1
1
1
1
1
1
1
1
1
1
1
1
1
1
1
1
1
1
1
1
1
1
1
1
1
1
1
1
1
1
1
1
1
1
1
1
1
1
1
1
1
1
1
1
1
1
1
1
1
1
1
1
1
1
1
1
1
1
1
1
1
1
1
1
1
1
1
1
1
1
1
1
1
1
1
1
1
1
1
1
1
1
1
1
1
1
1
1
1
1
1
1
1
1
1
1
1
1
1
1
1
1
1
1
1
1
1
1
1
1
1
1
1
1
1
1
1
1
1
1
1
1
1
1
1
1
1
1
1
1
1
1
1
1
1
1
1
1
1
1
1
1
1
1
1
1
1
1
1
1
1
1
1
1
1
1
1
1
1
1
1
1
1
1
1
1
1
1
1
1
1
1
1
1
1
1
1
1
1
1
1
1
1
1
1
1
1
1
1
1
1
1
1
1
1
1
1
1
1
1
1
1
1
1
1
1
1
1
1
1
1
1
1
1
1
1
1
1
1
1
1
1
1
1
1
1
1
1
1
1
1
1
1
1
1
1
1
1
1
1
1
1
1
1
1
1
1
1
1
1
1
1
1
1
1
1
1
1
1
1
1
1
1
1
1
1
1
1
1
1
1
1
1
1
1
1
1
1
1
1
1
1
1
1
1
1
1
1
1
1
1
1
1
1
1
1
1
1
1
1
1
1
1
1
1
1
1
1
1
1
1
1
1
1
1
1
1
1
1
1
1
1
1
1
1
1
1
1
1
1
1
1
1
1
1
1
1
1
1
1
1
1
1
1
1
1
1
1
1
1
1
1
1
1
1
1
1
1
1
1
1
1
1
1
1
1
1
1
1
1
1
1
1
1
1
1
1
1
1
1
1
1
1
1
1
1
1
1
1
1
1
1
1
1
1
1
1
1
1
1
1
1
1
1
1
1
1
1
1
1
1
1
1
1
1
1
1
1
1
1
1
1
1
1
1
1
1
1
1
1
1
1
1
1
1
1
1
1
1
1
1
1
1
1
1
1
1
1
1
1
1
1
1
1
1
1
1
1
1
1
1
1
1
1
1
1
1
1
1
1
1
1
1
1
1
1
1
1
1
1
1
1
1
1
1
1
1
1
1
1
1
1
1
1
1
1
1
1
1
1
1
1
1
1
1
1
1
1
1
1
1
1
1
1
1
1
1
1
1
1
1
1
1
1
1
1
1
1
1
1
1
1
1
1
1
1
1
1
1
1
1
1
1
1
1
1
1
1
1
1
1
1
1
1
1
1
1
1
1
1
1
1
1
1
1
1
1
1
1
1
1
1
1
1
1
1
1
1
1
1
1
1
1
1
1
1
1
1
1
1
1
1
1
1
1
1
1
1
1
1
1
1
1
1
1
1
1
1
1
1
1
1
1
1
1
1
1
1
1
1
1
1
1
1
1
1
1
1
1
1
1
1
1
1
1
1
1
1
1
1
1
1
1
1
1
1
1
1
1
1
1
1
1
1
1
1
1
1
1
1
1
1
1
1
1
1
1
1
1
1
1
1
1
1
1
1
1
1
1
1
1
1
1
1
1
1
1
1
1
1
1
1
1
1
1
1
1
1
1
1
1
1
1
1
1
1
1
1
1
1
1
1
1
1
1
1
1
1
1
1
1
1
1
1
1
1
1
1
1
1
1
1
1
1
1
1
1
1
1
1
1
1
1
1
1
1
1
1
1
1
1
1
1
1
1
1
1
1
1
1
1
1
1
1
1
1
1
1
1
1
1
1
1
1
1
1
1
1
1
1
1
1
1
1
1
1
1
1
1
1
1
1
1
1
1
1
1
1
1
1
1
1
1
1
1
1
1
1
1
1
1
1
1
1
1
1
1
1
1
1
1
1
1
1
1
1
1
1
1
1
1
1
1
1
1
1
1
1
1
1
1
1
1
1
1
1
1
1
1
1
1
1
1
1
1
1
1
1
1
1
1
1
1
1
1
1
1
1
1
1
1
1
1
1
1
1
1
1
1
1
1
1
1
1
1
1
1
1
1
1
1
1
1
1
1
1
1
1
1
1
1
1
1
1
1
1
1
1
1
1
1
1
1
1
1
1
1
1
1
1
1
1
1
1
1
1
1
1
1
1
1
1
1
1
1
1
1
1
1
1
1
1
1
1
1
1
1
1
1
1
1
1
1
1
1
1
1
1
1
1
1
1
1
1
1
1
1
1
1
1
1
1
1
1
1
1
1
1
1
1
1
1
1
1
1
1
1
1
1
1
1
1
1
1
1
1
1
1
1
1
1
1
1
1
1
1
1
1
1
1
1
1
1
1
1
1
1
1
1
1
1
1
1
1
1
1
1
1
1
1
1
1
1
1
1
1
1
1
1
1
1
1
1
1
1
1
1
1
1
1
1
1
1
1
1
1
1
1
1
1
1
1
1
1
1
1
1
1
1
1
1
1
1
1
1
1
1
1
1
1
1
1
1
1
1
1
1
1
1
1
1
1
1
1
1
1
1
1
1
1
1
1
1
1
1
1
1
1
1
1
1
1
1
1
1
1
1
1
1
1
1
1
1
1
1
1
1
1
1
1
1
1
1
1
1
1
1
1
1
1
1
1
1
1
1
1
1
1
1
1
1
1
1
1
1
1
1
1
1
1
1
1
1
1
1
1
1
1
1
1
1
1
1
1
1
1
1
1
1
1
1
1
1
1
1
1
1
1
1
1
1
1
1
1
1
1
1
1
1
1
1
1
1
1
1
1
1
1
1
1
1
1
1
1
1
1
1
1
1
1
1
1
1
1
1
1
1
1
1
1
1
1
1
1
1
1
1
1
1
1
1
1
1
1
1
1
1
1
1
1
1
1
1
1
1
1
1
1
1
1
1
1
1
1
1
1
1
1
1
1
1
1
1
1
1
1
1
1
1
1
1
1
1
1
1
1
1
1
1
1
1
1
1
1
1
1
1
1
1
1
1
1
1
1
1
1
1
1
1
1
1
1
1
1
1
1
1
1
1
1
1
1
1
1
1
1
1
1
1
1
1
1
1
1
1
1
1
1
1
1
1
1
1
1
1
1
1
1
1
1
1
1
1
1
1
1
1
1
1
1
1
1
1
1
1
1
1
1
1
1
1
1
1
1
1
1
1
1
1
1
1
1
1
1
1
1
1
1
1
1
1
1
1
1
1
1
1
1
1
1
1
1
1
1
1
1
1
1
1
1
1
1
1
1
1
1
1
1
1
1
1
1
1
1
1
1
1
1
1
1
1
1
1
1
1
1
1
1
1
1
1
1
1
1
1
1
1
1
1
1
1
1
1
1
1
1
1
1
1
1
1
1
1
1
1
1
1
1
1
1
1
1
1
1
1
1
1
1
1
1
1
1
1
1
1
1
1
1
1
1
1
1
1
1
1
1
1
1
1
1
1
1
1
1
1
1
1
1
1
1
1
1
1
1
1
1
1
1
1
1
1
1
1
1
1
1
1
1
1
1
1
1
1
1
1
1
1
1
1
1
1
1
1
1
1
1
1
1
1
1
1
1
1
1
1
1
1
1
1
1
1
1
1
1
1
1
1
1
1
1
1
1
1
1
1
1
1
1
1
1
1
1
1
1
1
1
1
1
1
1
1
1
1
1
1
1
1
1
1
1
1
1
1
1
1
1
1
1
1
1
1
1
1
1
1
1
1
1
1
1
1
1
1
1
1
1
1
1
1
1
1
1
1
1
1
1
1
1
1
1
1
1
1
1
1
1
1
1
1
1
1
1
1
1
1
1
1
1
1
1
1
1
1
1
1
1
1
1
1
1
1
1
1
1
1
1
1
1
1
1
1
1
1
1
1
1
1
1
1
1
1
1
1
1
1
1
1
1
1
1
1
1
1
1
1
1
1
1
1
1
1
1
1
1
1
1
1
1
1
1
1
1
1
1
1
1
1
1
1
1
1
1
1
1
1
1
1
1
1
1
1
1
1
1
1
1
1
1
1
1
1
1
1
1
1
1
1
1
1
1
1
1
1
1
1
1
1
1
1
1
1
1
1
1
1
1
1
1
1
1
1
1
1
1
1
1
1
1
1
1
1
1
1
1
1
1
1
1
1
1
1
1
1
1
1
1
1
1
1
1
1
1
1
1
1
1
1
1
1
1
1
1
1
1
1
1
1
1
1
1
1
1
1
1
1
1
1
1
1
1
1
1
1
1
1
1
1
1
1
1
1
1
1
1
1
1
1
1
1
1
1
1
1
1
1
1
1
1
1
1
1
1
1
1
1
1
1
1
1
1
1
1
1
1
1
1
1
1
1
1
1
1
1
1
1
1
1
1
1
1
1
1
1
1
1
1
1
1
1
1
1
1
1
1
1
1
1
1
1
1
1
1
1
1
1
1
1
1
1
1
1
1
1
1
1
1
1
1
1
1
1
1
1
1
1
1
1
1
1
1
1
1
1
1
1
1
1
1
1
1
1
1
1
1
1
1
1
1
1
1
1
1
1
1
1
1
1
1
1
1
1
1
1
1
1
1
1
1
1
1
1
1
1
1
1
1
1
1
1
1
1
1
1
1
1
1
1
1
1
1
1
1
1
1
1
1
1
1
1
1
1
1
1
1
1
1
1
1
1
1
1
1
1
1
1
1
1
1
1
1
1
1
1
1
1
1
1
1
1
1
1
1
1
1
1
1
1
1
1
1
1
1
1
1
1
1
1
1
1
1
1
1
1
1
1
1
1
1
1
1
1
1
1
1
1
1
1
1
1
1
1
1
1
1
1
1
1
1
1
1
1
1
1
1
1
1
1
1
1
1
1
1
1
1
1
1
1
1
1
1
1
1
1
1
1
1
1
1
1
1
1
1
1
1
1
1
1
1
1
1
1
1
1
1
1
1
1
1
1
1
1
1
1
1
1
1
1
1
1
1
1
1
1
1
1
1
1
1
1
1
1
1
1
1
1
1
1
1
1
1
1
1
1
1
1
1
1
1
1
1
1
1
1
1
1
1
1
1
1
1
1
1
1
1
1
1
1
1
1
1
1
1
1
1
1
1
1
1
1
1
1
1
1
1
1
1
1
1
1
1
1
1
1
1
1
1
1
1
1
1
1
1
1
1
1
1
1
1
1
1
1
1
1
1
1
1
1
1
1
1
1
1
1
1
1
1
1
1
1
1
1
1
1
1
1
1
1
1
1
1
1
1
1
1
1
1
1
1
1
1
1
1
1
1
1
1
1
1
1
1
1
1
1
1
1
1
1
1
1
1
1
1
1
1
1
1
1
1
1
1
1
1
1
1
1
1
1
1
1
1
1
1
1
1
1
1
1
1
1
1
1
1
1
1
1
1
1
1
1
1
1
1
1
1
1
1
1
1
1
1
1
1
1
1
1
1
1
1
1
1
1
1
1
1
1
1
1
1
1
1
1
1
1
1
1
1
1
1
1
1
1
1
1
1
1
1
1
1
1
1
1
1
1
1
1
1
1
1
1
1
1
1
1
1
1
1
1
1
1
1
1
1
1
1
1
1
1
1
1
1
1
1
1
1
1
1
1
1
1
1
1
1
1
1
1
1
1
1
1
1
1
1
1
1
1
1
1
1
1
1
1
1
1
1
1
1
1
1
1
1
1
1
1
1
1
1
1
1
1
1
1
1
1
1
1
1
1
1
1
1
1
1
1
1
1
1
1
1
1
1
1
1
1
1
1
1
1
1
1
1
1
1
1
1
1
1
1
1
1
1
1
1
1
1
1
1
1
1
1
1
1
1
1
1
1
1
1
1
1
1
1
1
1
1
1
1
1
1
1
1
1
1
1
1
1
1
1
1
1
1
1
1
1
1
1
1
1
1
1
1
1
1
1
1
1
1
1
1
1
1
1
1
1
1
1
1
1
1
1
1
1
1
1
1
1
1
1
1
1
1
1
1
1
1
1
1
1
1
1
1
1
1
1
1
1
1
1
1
1
1
1
1
1
1
1
1
1
1
1
1
1
1
1
1
1
1
1
1
1
1
1
1
1
1
1
1
1
1
1
1
1
1
1
1
1
1
1
1
1
1
1
1
1
1
1
1
1
1
1
1
1
1
1
1
1
1
1
1
1
1
1
1
1
1
1
1
1
1
1
1
1
1
1
1
1
1
1
1
1
1
1
1
1
1
1
1
1
1
1
1
1
1
1
1
1
1
1
1
1
1
1
1
1
1
1
1
1
1
1
1
1
1
1
1
1
1
1
1
1
1
1
1
1
1
1
1
1
1
1
1
1
1
1
1
1
1
1
1
1
1
1
1
1
1
1
1
1
1
1
1
1
1
1
1
1
1
1
1
1
1
1
1
1
1
1
1
1
1
1
1
1
1
1
1
1
1
1
1
1
1
1
1
1
1
1
1
1
1
1
1
1
1
1
1
1
1
1
1
1
1
1
1
1
1
1
1
1
1
1
1
1
1
1
1
1
1
1
1
1
1
1
1
1
1
1
1
1
1
1
1
1
1
1
1
1
1
1
1
1
1
1
1
1
1
1
1
1
1
1
1
1
1
1
1
1
1
1
1
1
1
1
1
1
1
1
1
1
1
1
1
1
1
1
1
1
1
1
1
1
1
1
1
1
1
1
1
1
1
1
1
1
1
1
1
1
1
1
1
1
1
1
1
1
1
1
1
1
1
1
1
1
1
1
1
1
1
1
1
1
1
1
1
1
1
1
1
1
1
1
1
1
1
1
1
1
1
1
1
1
1
1
1
1
1
1
1
1
1
1
1
1
1
1
1
1
1
1
1
1
1
1
1
1
1
1
1
1
1
1
1
1
1
1
1
1
1
1
1
1
1
1
1
1
1
1
1
1
1
1
1
1
1
1
1
1
1
1
1
1
1
1
1
1
1
1
1
1
1
1
1
1
1
1
1
1
1
1
1
1
1
1
1
1
1
1
1
1
1
1
1
1
1
1
1
1
1
1
1
1
1
1
1
1
1
1
1
1
1
1
1
1
1
1
1
1
1
1
1
1
1
1
1
1
1
1
1
1
1
1
1
1
1
1
1
1
1
1
1
1
1
1
1
1
1
1
1
1
1
1
1
1
1
1
1
1
1
1
1
1
1
1
1
1
1
1
1
1
1
1
1
1
1
1
1
1
1
1
1
1
1
1
1
1
1
1
1
1
1
1
1
1
1
1
1
1
1
1
1
1
1
1
1
1
1
1
1
1
1
1
1
1
1
0.999998
1
1
1
1
1
1
1
1
1
1
1
1
1
1
1
1
1
1
0.999998
0.999998
1
1
1
1
1
1
1
1
1
1
1
1
1
1
1
1
1
1
0.999998
1
1
1
1
1
1
1
1
1
1
1
1
1
1
1
1
1
1
1
1
1
1
1
1
1
1
1
1
1
1
1
1
1
1
1
1
1
1
1
1
0.999946
0.999999
1
1
1
1
1
1
1
1
1
1
1
1
1
1
1
1
0.999999
0.999946
0.999965
0.999999
1
1
1
1
1
1
1
1
1
1
1
1
1
1
1
1
0.999999
0.999965
1
1
1
1
1
1
1
1
1
1
1
1
1
1
1
1
1
1
1
1
0.999999
0.999989
1
1
1
1
1
1
1
1
1
1
1
1
1
1
1
1
0.999989
0.999999
1
0.999956
1
1
1
1
1
1
1
1
1
1
1
1
1
1
1
1
0.999956
1
1
0.999956
1
1
1
1
1
1
1
1
1
1
1
1
1
1
1
1
0.999956
1
1
0.999964
1
1
1
1
1
1
1
1
1
1
1
1
1
1
1
1
0.999964
1
1
0.999997
0.999973
1
1
1
1
1
1
1
1
1
1
1
1
1
1
0.999972
0.999997
1
1
1
0.99996
1
1
1
1
1
1
1
1
1
1
1
1
1
1
0.99996
1
1
1
1
0.99996
1
1
1
1
1
1
1
1
1
1
1
1
1
1
0.99996
1
1
1
1
0.999981
0.999989
1
1
1
1
1
1
1
1
1
1
1
1
0.999989
0.999981
1
1
1
1
1
0.99997
1
1
1
1
1
1
1
1
1
1
1
1
0.99997
1
1
1
1
1
1
0.99997
1
1
1
1
1
1
1
1
1
1
1
1
0.99997
1
1
1
1
1
1
0.999981
0.999988
1
1
1
1
1
1
1
1
1
1
0.999988
0.999981
1
1
1
1
1
1
0.999999
0.99998
1
1
1
1
1
1
1
1
1
1
0.99998
1
1
1
1
1
1
1
1
0.99998
0.999992
1
1
1
1
1
1
1
1
0.999992
0.99998
1
1
1
1
0.999999
0.999991
1
1
0.999992
0.999985
0.999999
1
1
1
1
1
1
0.999999
0.999985
0.999992
1
1
0.999991
0.999999
0.999949
0.999937
0.999974
1
0.999998
0.999985
0.999994
1
1
1
1
1
1
0.999994
0.999985
0.999998
1
0.999974
0.999937
0.999949
0.999912
0.999892
0.999951
0.999989
0.999996
0.999991
0.999991
0.999999
1
1
1
1
1
0.999991
0.999991
0.999996
0.999989
0.999951
0.999893
0.999911
0.999983
0.999686
0.999627
0.999871
0.999998
1
0.999991
0.999997
1
1
1
1
0.999997
0.999991
1
0.999998
0.999871
0.999627
0.999683
0.999983
0.999895
0.999398
0.999398
0.999501
0.999964
1
0.999995
0.999996
1
1
1
1
0.999996
0.999995
1
0.999964
0.9995
0.999397
0.999397
0.999895
0.999926
0.999409
0.999398
0.999398
0.999836
1
1
0.999999
1
1
1
1
0.999999
1
1
0.999837
0.999397
0.999397
0.999409
0.999926
0.999968
0.99989
0.99983
0.999893
0.999961
1
1
1
1
1
1
1
1
1
1
0.999961
0.999895
0.999834
0.999893
0.999968
0.999963
1
1
1
1
1
1
1
0.999999
1
1
0.999999
1
1
1
1
1
1
1
0.999964
0.999999
0.999979
0.999994
1
1
1
1
0.999998
1
1
1
1
0.999998
1
1
1
1
0.999994
0.999979
0.999999
0.999996
0.999963
0.999993
1
1
1
1
0.999998
1
1
1
1
0.999998
1
1
1
1
0.999993
0.999963
0.999996
0.999995
0.999964
0.999999
1
1
1
1
0.999998
0.999995
1
1
0.999995
0.999998
1
1
1
1
0.999999
0.999964
0.999995
0.999998
0.999994
1
1
1
1
1
0.999999
0.999995
0.999999
0.999999
0.999995
0.999999
1
1
1
1
1
0.999994
0.999998
0.999999
0.99996
1
1
1
1
1
0.999999
0.999996
0.999999
0.999999
0.999996
0.999999
1
1
1
1
1
0.99996
0.999999
1
0.999936
1
1
1
1
1
1
1
1
1
1
1
1
1
1
1
1
0.999937
1
1
1
0.996672
0.969532
0.943004
0.848333
0.750816
0.63976
0.530029
0.470704
0.470719
0.53001
0.63976
0.750805
0.848328
0.943008
0.96954
0.996667
1
1
1
0.988807
0.909541
0.752357
0.467093
0.272909
0.114132
0.0251873
0.00441893
5.85822e-16
5.86688e-16
0.0044154
0.0251832
0.114127
0.272867
0.467083
0.752339
0.90954
0.988811
1
1
0.843347
0.467645
0.173959
0.0579056
5.30574e-16
5.30278e-16
5.30589e-16
5.30422e-16
5.72749e-10
5.75201e-10
5.03963e-16
5.04082e-16
5.03972e-16
5.04181e-16
0.0578986
0.17393
0.467643
0.843334
1
0.79798
0.218875
0.0743528
5.33308e-16
5.32931e-16
7.03534e-13
8.40999e-12
1.23232e-10
7.60565e-10
1.73679e-09
1.74504e-09
7.68118e-10
1.25159e-10
8.60193e-12
7.28572e-13
5.03141e-16
5.06917e-16
0.0743301
0.218888
0.797957
0.147454
-3.24437e-35
1.47822e-19
1.34051e-13
2.92802e-13
6.28724e-13
1.48106e-12
4.15285e-11
7.44133e-10
2.14864e-09
2.14864e-09
7.53054e-10
4.29175e-11
1.5549e-12
6.54993e-13
3.04574e-13
1.39944e-13
5.67916e-19
2.39127e-19
0.147466
6.55535e-19
1.22472e-18
1.14845e-17
2.91611e-14
1.03226e-13
2.00283e-13
4.83874e-13
1.11559e-11
4.87955e-10
2.14864e-09
2.14864e-09
4.96579e-10
1.16467e-11
5.079e-13
2.09042e-13
1.08303e-13
3.13328e-14
1.28508e-17
1.2978e-18
-1.03579e-18
3.90384e-36
2.71219e-18
2.17709e-16
1.32555e-15
3.00817e-15
1.12462e-14
5.07252e-14
3.72105e-12
3.68827e-10
2.00119e-09
2.02078e-09
3.77037e-10
3.86932e-12
5.28811e-14
1.17588e-14
3.1962e-15
1.45871e-15
2.44509e-16
2.99409e-18
0
7.29928e-20
1.70648e-18
7.0613e-16
9.90176e-16
3.76622e-16
1.42853e-16
1.43478e-16
4.64663e-13
3.16685e-10
1.82557e-09
1.83855e-09
3.22516e-10
4.87086e-13
1.4999e-16
1.49419e-16
4.16898e-16
1.09553e-15
7.8376e-16
1.86508e-18
7.57355e-20
4.3323e-20
3.57222e-19
6.26134e-16
4.786e-16
8.32888e-17
7.69461e-17
1.97506e-15
4.69169e-16
2.39666e-10
1.82449e-09
1.83296e-09
2.42352e-10
4.26128e-16
1.86914e-15
8.04733e-17
9.15806e-17
5.30049e-16
6.93456e-16
3.76305e-19
3.88476e-20
1.08483e-20
1.16692e-20
1.74022e-16
6.32873e-17
7.58609e-18
9.90908e-17
2.80478e-14
4.6765e-16
1.71088e-10
2.09303e-09
2.09585e-09
1.73048e-10
4.2468e-16
2.74517e-14
9.73843e-17
7.8733e-18
6.99331e-17
1.92186e-16
1.13536e-20
7.8635e-21
-4.00212e-39
2.03118e-23
5.65145e-18
1.45951e-18
4.00248e-18
3.66857e-16
9.11609e-14
4.69169e-16
1.14687e-10
2.37603e-09
2.38416e-09
1.16228e-10
4.26128e-16
9.10727e-14
3.65117e-16
3.96035e-18
1.53149e-18
6.20852e-18
1.72323e-23
1.43434e-38
9.38641e-10
1.69181e-23
2.64288e-20
2.5283e-20
4.62783e-16
1.72887e-14
4.75875e-13
4.87642e-12
6.91641e-11
2.66164e-09
2.67919e-09
7.06088e-11
4.82228e-12
4.74423e-13
1.72875e-14
4.61967e-16
2.49405e-20
2.62048e-20
1.41725e-23
9.38628e-10
3.65749e-09
7.37178e-11
2.5283e-20
2.03672e-13
5.95821e-13
1.23651e-12
4.00242e-12
1.93273e-11
3.88762e-11
2.90589e-09
2.92348e-09
3.96766e-11
1.92667e-11
3.9969e-12
1.23467e-12
5.94767e-13
2.03334e-13
2.49405e-20
7.37036e-11
3.65727e-09
1.89265e-09
1.72726e-10
2.89903e-11
1.34638e-11
9.75697e-12
1.17742e-11
2.04318e-11
5.16645e-11
3.84831e-11
2.98211e-09
2.98066e-09
3.75172e-11
5.16389e-11
2.04158e-11
1.17605e-11
9.74407e-12
1.34455e-11
2.8975e-11
1.7266e-10
1.89246e-09
1.09205e-10
1.39449e-10
8.91332e-11
6.02382e-11
4.45377e-11
4.65231e-11
5.72798e-11
9.28919e-11
3.85205e-11
2.82403e-09
2.65098e-09
3.74777e-11
9.3265e-11
5.72331e-11
4.64784e-11
4.44907e-11
6.01723e-11
8.90763e-11
1.39393e-10
1.09185e-10
5.32265e-14
4.41715e-11
7.4214e-11
7.29869e-11
7.33186e-11
7.84069e-11
8.8088e-11
1.41599e-10
5.27018e-11
1.76566e-09
1.52745e-09
5.35017e-11
1.42365e-10
8.7985e-11
7.83478e-11
7.3254e-11
7.29135e-11
7.41565e-11
4.41483e-11
5.32301e-14
-2.80461e-33
2.49393e-12
2.87616e-11
5.4981e-11
6.89685e-11
7.91622e-11
1.1145e-10
1.83781e-10
1.02958e-10
6.87544e-10
6.27883e-10
1.04157e-10
1.84047e-10
1.11431e-10
7.91013e-11
6.89107e-11
5.49252e-11
2.87323e-11
2.49185e-12
1.54816e-33
-3.79413e-35
1.19602e-14
2.98881e-12
1.97771e-11
4.46006e-11
6.64207e-11
1.21047e-10
1.89706e-10
1.75666e-10
5.99739e-10
5.91475e-10
1.75647e-10
1.89701e-10
1.21075e-10
6.6368e-11
4.45632e-11
1.97561e-11
2.98446e-12
1.19446e-14
-3.36015e-35
-2.92903e-36
2.6834e-18
4.50511e-14
2.21413e-12
1.46868e-11
4.23266e-11
1.20891e-10
1.85939e-10
5.46406e-10
7.67141e-10
7.68584e-10
5.42382e-10
1.85777e-10
1.20989e-10
4.23032e-11
1.46745e-11
2.21134e-12
4.49563e-14
2.67843e-18
-2.6509e-36
1.01013e-32
5.35497e-23
5.75147e-17
4.87524e-14
1.86626e-12
2.71436e-11
1.23712e-10
1.75284e-10
2.09313e-09
1.09963e-09
1.11081e-09
2.09813e-09
1.74334e-10
1.23867e-10
2.7184e-11
1.86452e-12
4.867e-14
5.7346e-17
5.34506e-23
1.00679e-32
1.3596e-33
1.70262e-27
4.25633e-21
2.84462e-16
3.09542e-13
2.20881e-11
1.22325e-10
1.8461e-10
2.90055e-09
1.16484e-09
1.1772e-09
2.92289e-09
1.83423e-10
1.22432e-10
2.21743e-11
3.08653e-13
2.82238e-16
4.24154e-21
1.69609e-27
1.3581e-33
5.33286e-34
7.50489e-28
2.77361e-22
1.38388e-16
3.01613e-13
1.84941e-11
1.09799e-10
2.09423e-10
2.90084e-09
1.06566e-09
1.07786e-09
2.92318e-09
2.08209e-10
1.09754e-10
1.85864e-11
3.00681e-13
1.37374e-16
2.76824e-22
7.49265e-28
5.31644e-34
3.21963e-34
6.51104e-28
3.42705e-22
1.3135e-16
3.2038e-13
1.44401e-11
9.01672e-11
2.31294e-10
2.4615e-09
7.51379e-10
7.62099e-10
2.48569e-09
2.30114e-10
9.00067e-11
1.44937e-11
3.19374e-13
1.3073e-16
3.42096e-22
6.51208e-28
3.22228e-34
1.11998e-34
3.7195e-28
2.9092e-22
1.08155e-16
3.12046e-13
1.14254e-11
8.10266e-11
2.4734e-10
9.42167e-10
3.3325e-10
3.39933e-10
9.52344e-10
2.46502e-10
8.09341e-11
1.14252e-11
3.1102e-13
1.07878e-16
2.90576e-22
3.72085e-28
1.12177e-34
1.63567e-35
9.45328e-29
1.22499e-22
5.62517e-17
2.44277e-13
9.85363e-12
7.80586e-11
2.44925e-10
1.02488e-10
7.36796e-11
7.58962e-11
1.02985e-10
2.44249e-10
7.80358e-11
9.82725e-12
2.43334e-13
5.61476e-17
1.224e-22
9.44979e-29
1.63603e-35
7.48669e-37
7.60684e-30
1.70496e-23
1.21958e-17
1.22324e-13
8.54304e-12
7.34244e-11
2.15315e-10
9.55014e-12
7.41638e-12
7.6828e-12
9.50604e-12
2.15103e-10
7.34644e-11
8.5111e-12
1.21697e-13
1.2154e-17
1.70095e-23
7.58744e-30
7.46705e-37
8.68321e-39
1.4845e-31
5.75093e-25
7.23216e-19
3.21639e-14
6.62274e-12
6.18568e-11
1.41895e-10
5.36776e-12
1.95992e-12
1.96757e-12
5.35428e-12
1.42213e-10
6.19644e-11
6.59739e-12
3.19222e-14
7.17477e-19
5.70857e-25
1.47267e-31
8.59945e-39
4.41929e-41
9.46415e-34
5.03702e-27
9.92704e-21
4.38849e-15
3.88508e-12
4.08539e-11
5.63781e-11
4.27962e-12
1.83546e-12
1.83534e-12
4.27084e-12
5.67716e-11
4.10015e-11
3.87361e-12
4.34092e-15
9.7689e-21
4.95514e-27
9.30845e-34
4.13109e-41
-7.44452e-40
1.61646e-35
9.07278e-29
2.09995e-22
3.82305e-16
1.32165e-12
1.73148e-11
1.08972e-11
3.77081e-12
1.81786e-12
1.8175e-12
3.76233e-12
1.10236e-11
1.74306e-11
1.32028e-12
3.77749e-16
2.07368e-22
8.94187e-29
1.59188e-35
-3.1187e-39
-1.22129e-39
2.45837e-37
2.08537e-30
7.20651e-24
1.76753e-17
1.79672e-13
3.49577e-12
1.7542e-12
3.53033e-12
1.78965e-12
1.78935e-12
3.52173e-12
1.75855e-12
3.53604e-12
1.80064e-13
1.75051e-17
7.15002e-24
2.06523e-30
2.21367e-37
-2.61668e-39
-7.13561e-40
4.42773e-40
1.51326e-32
8.29213e-26
2.39152e-19
6.29267e-15
2.32404e-13
1.03686e-12
3.35971e-12
1.71826e-12
1.71829e-12
3.35143e-12
1.03054e-12
2.36559e-13
6.33362e-15
2.37832e-19
8.2619e-26
1.50663e-32
-4.97196e-37
-1.4684e-39
-2.84203e-40
-4.76391e-37
1.56565e-35
1.42662e-28
5.05854e-22
3.71536e-17
6.25295e-15
8.86654e-13
3.1437e-12
1.56531e-12
1.56584e-12
3.1362e-12
8.80696e-13
6.30258e-15
3.75795e-17
5.05275e-22
1.42711e-28
1.56824e-35
-1.02908e-36
-5.58212e-40
-8.64407e-41
-2.82991e-37
5.43477e-39
3.51401e-32
1.2144e-25
4.42352e-20
1.66101e-15
7.27837e-13
2.78476e-12
1.29789e-12
1.29894e-12
2.77863e-12
7.23299e-13
1.63875e-15
4.42875e-20
1.21329e-25
3.50414e-32
5.27536e-39
-5.57529e-37
-1.66417e-40
-2.27193e-41
-1.17687e-37
7.11265e-40
3.39569e-33
7.25212e-27
7.94527e-21
1.00487e-15
4.94448e-13
2.20565e-12
9.16699e-13
9.18111e-13
2.20151e-12
4.91941e-13
9.89827e-16
7.79022e-21
7.14153e-27
3.35631e-33
6.65458e-40
-2.26122e-37
-4.32583e-41
-5.4238e-42
-4.2571e-38
1.18217e-40
9.14553e-34
2.64128e-27
3.84514e-21
5.18076e-16
2.32447e-13
1.42558e-12
4.91916e-13
4.93251e-13
1.4237e-12
2.31712e-13
5.11068e-16
3.77483e-21
2.60717e-27
9.06536e-34
8.95491e-41
-8.0817e-38
-1.02483e-41
-1.2034e-42
-1.41974e-38
4.22444e-42
1.40299e-34
6.45835e-28
1.30027e-21
1.56675e-16
5.80891e-14
6.4411e-13
1.64202e-13
1.64967e-13
6.43865e-13
5.80761e-14
1.55111e-16
1.2827e-21
6.4086e-28
1.39915e-34
-3.94253e-39
-2.673e-38
-2.25941e-42
-2.51342e-43
-4.46525e-39
-4.5799e-39
6.5878e-36
5.62062e-29
1.79768e-22
1.88758e-17
5.3819e-15
1.57597e-13
2.4985e-14
2.51775e-14
1.57783e-13
5.40364e-15
1.87995e-17
1.78755e-22
5.62536e-29
6.63573e-36
-1.28354e-38
-8.35091e-39
-4.68817e-43
-4.9813e-44
-1.3397e-39
-4.63256e-39
5.82275e-38
1.06585e-30
6.27129e-24
5.91283e-19
1.23214e-16
1.45729e-14
1.1699e-15
1.18395e-15
1.46241e-14
1.24432e-16
5.93881e-19
6.305e-24
1.08015e-30
5.77609e-38
-1.0997e-38
-2.49113e-39
-9.22115e-44
-9.42223e-45
-3.86103e-40
-3.06623e-39
5.15544e-41
2.91793e-33
3.5513e-26
3.19012e-21
4.77212e-19
3.37939e-16
1.12379e-17
1.14343e-17
3.40192e-16
4.8589e-19
3.23816e-21
3.61963e-26
3.00746e-33
3.86475e-41
-6.86624e-39
-7.14273e-40
-1.72856e-44
-1.70988e-45
-1.07386e-40
-1.71982e-39
-8.09239e-39
8.15756e-37
2.24911e-29
2.07802e-24
2.30265e-22
1.32942e-18
1.54158e-20
1.57842e-20
1.34344e-18
2.37993e-22
2.1353e-24
2.32894e-29
8.51729e-37
-1.64672e-38
-3.74624e-39
-1.97737e-40
-3.10607e-45
-2.9887e-46
-2.89211e-41
-8.8287e-40
-1.01478e-38
3.2223e-41
1.29742e-33
1.32334e-28
1.45093e-26
6.34476e-22
2.23469e-24
2.30357e-24
6.44015e-22
1.53109e-26
1.37255e-28
1.35835e-33
3.00104e-41
-1.97328e-38
-1.89254e-39
-5.30283e-41
-5.37068e-46
-5.06029e-47
-7.56212e-42
-4.27343e-40
-8.787e-39
-1.13038e-38
5.96959e-38
6.89078e-33
9.29566e-31
3.71307e-26
1.16198e-28
1.19804e-28
3.771e-26
1.00382e-30
7.12424e-33
5.98188e-38
-2.26555e-38
-1.67965e-38
-9.06457e-40
-1.38116e-41
-8.98212e-47
-8.33661e-48
-1.9238e-42
-1.97824e-40
-6.56172e-39
-1.62294e-38
1.14e-42
3.63729e-37
5.93389e-35
2.1027e-30
6.05e-33
6.23698e-33
2.13661e-30
6.48938e-35
3.75001e-37
5.02334e-44
-3.14827e-38
-1.24397e-38
-4.16478e-40
-3.50119e-42
-1.46014e-47
-1.32135e-48
-4.77032e-43
-8.82682e-41
-4.50218e-39
-1.6597e-38
-5.12955e-39
1.67773e-41
3.52559e-39
1.15769e-34
3.1992e-37
3.29658e-37
1.17688e-34
3.75089e-39
1.69784e-41
-1.0292e-38
-3.1807e-38
-8.49073e-39
-1.84782e-40
-8.65362e-43
-2.29375e-48
-1.97522e-49
-1.15471e-43
-3.81457e-41
-2.91272e-39
-1.47471e-38
-7.55421e-39
-8.42655e-40
1.12561e-43
6.18159e-39
1.55344e-41
1.59928e-41
6.24817e-39
6.84735e-44
-1.69826e-39
-1.46194e-38
-2.80875e-38
-5.4721e-39
-7.9497e-41
-2.08861e-43
-3.44502e-49
-2.76882e-50
-2.73213e-44
-1.60174e-41
-1.80071e-39
-1.205e-38
-8.43229e-39
-1.60787e-39
-2.64267e-40
2.71675e-43
-9.68786e-42
-1.99686e-41
2.57601e-43
-5.22758e-40
-3.14473e-39
-1.61473e-38
-2.28566e-38
-3.37268e-39
-3.32574e-41
-4.92907e-44
-4.98793e-50
-3.77861e-51
-6.32621e-45
-6.54999e-42
-1.07219e-39
-9.27899e-39
-8.28461e-39
-2.08661e-39
-4.53759e-40
-6.53693e-41
-2.66576e-41
-5.04226e-41
-1.26988e-40
-8.67777e-40
-4.0273e-39
-1.57706e-38
-1.75458e-38
-2.00307e-39
-1.35572e-41
-1.13877e-44
-7.01865e-51
-5.20217e-52
-1.43508e-45
-2.61312e-42
-6.17967e-40
-6.82208e-39
-7.50784e-39
-2.30608e-39
-5.8282e-40
-1.23115e-40
-4.08088e-41
-7.60104e-41
-2.31959e-40
-1.10261e-39
-4.41928e-39
-1.4233e-38
-1.28671e-38
-1.15193e-39
-5.39377e-42
-2.57837e-45
-9.77371e-52
-7.17209e-53
-3.19261e-46
-1.01851e-42
-3.45949e-40
-4.82645e-39
-6.41632e-39
-2.3193e-39
-6.57453e-40
-1.64503e-40
-5.10921e-41
-9.44171e-41
-3.06242e-40
-1.23641e-39
-4.42377e-39
-1.21251e-38
-9.08311e-39
-6.43589e-40
-2.09718e-42
-5.7268e-46
-1.36984e-52
-1.05751e-53
-6.97256e-47
-3.88315e-43
-1.88573e-40
-3.30242e-39
-5.23507e-39
-2.18346e-39
-6.83052e-40
-1.90198e-40
-5.73261e-41
-1.05413e-40
-3.51836e-40
-1.27923e-39
-4.14997e-39
-9.86699e-39
-6.20276e-39
-3.50178e-40
-7.97787e-43
-1.24901e-46
-2.03483e-53
-1.85869e-54
-1.49666e-47
-1.44968e-43
-1.0027e-40
-2.19304e-39
-4.10869e-39
-1.95315e-39
-6.68125e-40
-2.01536e-40
-5.98297e-41
-1.09627e-40
-3.71227e-40
-1.24727e-39
-3.70164e-39
-7.72654e-39
-4.11167e-39
-1.85889e-40
-2.97221e-43
-2.67782e-47
-3.3661e-54
-3.88141e-55
-3.16232e-48
-5.30438e-44
-5.20867e-41
-1.41701e-39
-3.1175e-39
-1.67517e-39
-6.22921e-40
-2.00705e-40
-5.91729e-41
-1.08125e-40
-3.68511e-40
-1.15983e-39
-3.16707e-39
-5.85081e-39
-2.65229e-39
-9.64103e-41
-1.08542e-43
-5.65034e-48
-6.12413e-55
-9.02474e-56
-6.59017e-49
-1.90386e-44
-2.64639e-41
-8.92592e-40
-2.2949e-39
-1.38578e-39
-5.57888e-40
-1.90446e-40
-5.6055e-41
-1.02193e-40
-3.48768e-40
-1.0364e-39
-2.61436e-39
-4.29911e-39
-1.66809e-39
-4.89108e-41
-3.8886e-44
-1.17491e-48
-1.14565e-55
-2.16014e-56
-1.35779e-49
-6.70811e-45
-1.31638e-41
-5.48974e-40
-1.64326e-39
-1.11035e-39
-4.82495e-40
-1.73637e-40
-5.12085e-41
-9.31739e-41
-3.17286e-40
-8.94551e-40
-2.09069e-39
-3.07319e-39
-1.0244e-39
-2.42951e-41
-1.36765e-44
-2.41127e-49
-2.196e-56
-4.65824e-57
-2.77236e-50
-2.32178e-45
-6.41615e-42
-3.30075e-40
-1.14687e-39
-8.64336e-40
-4.0451e-40
-1.52967e-40
-4.5323e-41
-8.23212e-41
-2.78978e-40
-7.48616e-40
-1.6246e-39
-2.14146e-39
-6.15057e-40
-1.18257e-41
-4.72541e-45
-4.89509e-50
-4.32538e-57
-8.95205e-58
-5.62352e-51
-7.89887e-46
-3.06657e-42
-1.94219e-40
-7.81406e-40
-6.55222e-40
-3.29693e-40
-1.30726e-40
-3.89935e-41
-7.07127e-41
-2.38002e-40
-6.09148e-40
-1.22953e-39
-1.45689e-39
-3.61412e-40
-5.64478e-42
-1.60493e-45
-9.86492e-51
-8.78188e-58
-1.6245e-58
-1.13915e-51
-2.64305e-46
-1.43813e-42
-1.11939e-40
-5.20443e-40
-4.846e-40
-2.61828e-40
-1.08694e-40
-3.26927e-41
-5.92001e-41
-1.97577e-40
-4.83017e-40
-9.07957e-40
-9.68964e-40
-2.08028e-40
-2.64395e-42
-5.36164e-46
-1.98589e-51
-1.84453e-58
-3.32234e-59
-2.33445e-52
-8.70463e-47
-6.62156e-43
-6.32443e-41
-3.39221e-40
-3.50206e-40
-2.02972e-40
-8.81271e-41
-2.67631e-41
-4.83968e-41
-1.59957e-40
-3.73903e-40
-6.55197e-40
-6.30711e-40
-1.17385e-40
-1.2159e-42
-1.7629e-46
-4.03288e-52
-4.00755e-59
-7.70516e-60
-4.95181e-53
-2.82399e-47
-2.99481e-43
-3.5052e-41
-2.16581e-40
-2.47601e-40
-1.53822e-40
-6.97993e-41
-2.1425e-41
-3.86942e-41
-1.26517e-40
-2.82977e-40
-4.62592e-40
-4.02165e-40
-6.49785e-41
-5.49291e-43
-5.70855e-47
-8.39859e-53
-9.16522e-60
-1.92693e-60
-1.11244e-53
-9.03222e-48
-1.33116e-43
-1.90689e-41
-1.35564e-40
-1.71448e-40
-1.14106e-40
-5.4083e-41
-1.6794e-41
-3.02935e-41
-9.79035e-41
-2.09642e-40
-3.19891e-40
-2.51412e-40
-3.53074e-41
-2.4388e-43
-1.82176e-47
-1.83136e-53
-2.19941e-60
-4.90092e-61
-2.67306e-54
-2.85007e-48
-5.8175e-44
-1.01884e-41
-8.32478e-41
-1.16375e-40
-8.2939e-41
-4.1045e-41
-1.29029e-41
-2.32477e-41
-7.42101e-41
-1.52192e-40
-2.16858e-40
-1.54202e-40
-1.88426e-41
-1.06465e-43
-5.73332e-48
-4.2399e-54
-5.40891e-61
-1.28265e-61
-6.82475e-55
-8.87861e-49
-2.50069e-44
-5.34895e-42
-5.01869e-41
-7.74961e-41
-5.91251e-41
-3.05414e-41
-9.72549e-42
-1.75033e-41
-5.51546e-41
-1.08366e-40
-1.44233e-40
-9.28543e-41
-9.88129e-42
-4.57159e-44
-1.78035e-48
-1.03854e-54
-1.34245e-61
-3.40435e-62
-1.82978e-55
-2.73288e-49
-1.0577e-44
-2.76072e-42
-2.97203e-41
-5.06642e-41
-4.13706e-41
-2.23009e-41
-7.19702e-42
-1.29388e-41
-4.02277e-41
-7.57382e-41
-9.41828e-41
-5.49253e-41
-5.09435e-42
-1.93161e-44
-5.45749e-49
-2.64951e-55
-3.30166e-62
-8.8024e-63
-4.99773e-56
-8.31626e-50
-4.40352e-45
-1.40136e-42
-1.72978e-41
-3.25384e-41
-2.8433e-41
-1.59913e-41
-5.23239e-42
-9.39703e-42
-2.88148e-41
-5.19954e-41
-6.04183e-41
-3.19325e-41
-2.58315e-42
-8.03364e-45
-1.65218e-49
-6.90769e-56
-7.97731e-63
-2.11698e-63
-1.3384e-56
-2.50175e-50
-1.80514e-45
-6.99886e-43
-9.89962e-42
-2.05406e-41
-1.92058e-41
-1.12684e-41
-3.73943e-42
-6.70902e-42
-2.02832e-41
-3.5084e-41
-3.80979e-41
-1.82555e-41
-1.28875e-42
-3.28995e-45
-4.9421e-50
-1.80892e-56
-1.88208e-63
-4.57546e-64
-3.44056e-57
-7.43805e-51
-7.28832e-46
-3.44043e-43
-5.5735e-42
-1.27518e-41
-1.27574e-41
-7.80734e-42
-2.62841e-42
-4.7111e-42
-1.4039e-41
-2.32802e-41
-2.36259e-41
-1.02671e-41
-6.3286e-43
-1.32703e-45
-1.46152e-50
-4.7048e-57
-4.25986e-64
-9.345e-65
-8.52289e-58
-2.18744e-51
-2.8992e-46
-1.66517e-43
-3.08816e-42
-7.78893e-42
-8.33732e-42
-5.3215e-42
-1.81788e-42
-3.25522e-42
-9.5595e-42
-1.51989e-41
-1.44157e-41
-5.68298e-42
-3.05995e-43
-5.27372e-46
-4.27638e-51
-1.21159e-57
-9.40403e-65
-1.99755e-65
-2.13366e-58
-6.37841e-52
-1.13654e-46
-7.93788e-44
-1.68461e-42
-4.68294e-42
-5.36321e-42
-3.56989e-42
-1.23766e-42
-2.21419e-42
-6.40674e-42
-9.76745e-42
-8.65827e-42
-3.09701e-42
-1.45724e-43
-2.06546e-46
-1.23972e-51
-3.1231e-58
-2.09448e-65
-4.66664e-66
-5.49677e-59
-1.84881e-52
-4.39198e-47
-3.72807e-44
-9.05074e-43
-2.77247e-42
-3.39732e-42
-2.35802e-42
-8.29797e-43
-1.48317e-42
-4.22787e-42
-6.1812e-42
-5.12086e-42
-1.66227e-42
-6.83735e-44
-7.97434e-47
-3.56836e-52
-8.17591e-59
-4.95845e-66
-1.13706e-66
-1.44028e-59
-5.33631e-53
-1.67347e-47
-1.72553e-44
-4.79069e-43
-1.6169e-42
-2.11994e-42
-1.53419e-42
-5.48056e-43
-9.78717e-43
-2.74823e-42
-3.85345e-42
-2.98355e-42
-8.79023e-43
-3.16164e-44
-3.03572e-47
-1.02261e-52
-2.22171e-59
-1.32162e-66
-2.81404e-67
-3.83423e-60
-1.53522e-53
-6.28864e-48
-7.87297e-45
-2.49907e-43
-9.29219e-43
-1.30358e-42
-9.83558e-43
-3.567e-43
-6.36439e-43
-1.76029e-42
-2.36735e-42
-1.71297e-42
-4.58112e-43
-1.44119e-44
-1.13978e-47
-2.92578e-53
-6.18463e-60
-3.74367e-67
-7.06554e-68
-1.01739e-60
-4.40504e-54
-2.33118e-48
-3.54197e-45
-1.28514e-43
-5.26391e-43
-7.90171e-43
-6.21516e-43
-2.28842e-43
-4.07962e-43
-1.11136e-42
-1.43368e-42
-9.69459e-43
-2.35367e-43
-6.47782e-45
-4.22155e-48
-8.36899e-54
-1.73018e-60
-1.07492e-67
-1.70075e-68
-2.68327e-61
-1.25867e-54
-8.52644e-49
-1.57163e-45
-6.51689e-44
-2.94026e-43
-4.72282e-43
-3.87227e-43
-1.44759e-43
-2.57849e-43
-6.9182e-43
-8.56141e-43
-5.4101e-43
-1.19245e-43
-2.87171e-45
-1.5428e-48
-2.39688e-54
-4.85767e-61
-3.0541e-68
-4.36248e-69
-7.03935e-62
-3.58578e-55
-3.07772e-49
-6.87949e-46
-3.25956e-44
-1.61984e-43
-2.7842e-43
-2.37937e-43
-9.03124e-44
-1.60735e-43
-4.24737e-43
-5.04272e-43
-2.97782e-43
-5.95898e-44
-1.25591e-45
-5.56451e-49
-6.89478e-55
-1.3643e-61
-8.50789e-69
-1.15296e-69
-1.86244e-62
-1.02506e-55
-1.0966e-49
-2.9714e-46
-1.60848e-44
-8.80411e-44
-1.61932e-43
-1.44229e-43
-5.55838e-44
-9.88462e-44
-2.57247e-43
-2.93038e-43
-1.61705e-43
-2.93798e-44
-5.41981e-46
-1.98114e-49
-1.99702e-55
-3.81997e-62
-2.35041e-69
-2.83263e-70
-4.95181e-63
-2.93821e-56
-3.8575e-50
-1.26665e-46
-7.83274e-45
-4.72207e-44
-9.29406e-44
-8.62673e-44
-3.37559e-44
-5.99814e-44
-1.53741e-43
-1.68047e-43
-8.66543e-44
-1.42947e-44
-2.30838e-46
-6.96407e-50
-5.82333e-56
-1.06299e-62
-6.16846e-70
-6.52523e-71
-1.28017e-63
-8.40469e-57
-1.33995e-50
-5.33014e-47
-3.76489e-45
-2.49987e-44
-5.26524e-44
-5.09265e-44
-2.02325e-44
-3.59233e-44
-9.06854e-44
-9.51221e-44
-4.58354e-44
-6.86506e-45
-9.70554e-47
-2.41741e-50
-1.70519e-56
-2.89881e-63
-1.47531e-70
-1.42932e-71
-3.21682e-64
-2.39545e-57
-4.59695e-51
-2.21457e-47
-1.78659e-45
-1.30658e-44
-2.94488e-44
-2.96783e-44
-1.19712e-44
-2.12389e-44
-5.28067e-44
-5.31588e-44
-2.39361e-44
-3.25503e-45
-4.02909e-47
-8.28807e-51
-4.98504e-57
-7.64346e-64
-3.21679e-71
-3.187e-72
-8.0458e-65
-6.82009e-58
-1.55789e-51
-9.08642e-48
-8.37187e-46
-6.74352e-45
-1.62646e-44
-1.70774e-44
-6.99367e-45
-1.23985e-44
-3.03623e-44
-2.9336e-44
-1.23435e-44
-1.52404e-45
-1.65178e-47
-2.80699e-51
-1.44627e-57
-1.95376e-64
-6.85374e-72
-7.67073e-73
-2.07487e-65
-1.95933e-58
-5.21645e-52
-3.68239e-48
-3.87463e-46
-3.43759e-45
-8.87224e-45
-9.70469e-45
-4.03491e-45
-7.14783e-45
-1.72409e-44
-1.59899e-44
-6.2871e-45
-7.04776e-46
-6.68861e-48
-9.39249e-52
-4.15976e-58
-4.94274e-65
-1.55343e-72
-2.28061e-73
-5.91866e-66
-5.81026e-59
-1.72618e-52
-1.47428e-48
-1.77146e-46
-1.7311e-45
-4.78098e-45
-5.44751e-45
-2.29935e-45
-4.07029e-45
-9.67048e-45
-8.60971e-45
-3.1635e-45
-3.21962e-46
-2.67569e-48
-3.1056e-52
-1.19007e-58
-1.26632e-65
-3.88921e-73
-8.45918e-74
-1.91341e-66
-1.79523e-59
-5.64624e-53
-5.83195e-49
-8.00211e-47
-8.61341e-46
-2.54551e-45
-3.02099e-45
-1.29448e-45
-2.28982e-45
-5.35891e-45
-4.58048e-45
-1.5728e-45
-1.45323e-46
-1.05761e-48
-1.01487e-52
-3.40472e-59
-3.335e-66