/*--------------------------------*- C++ -*----------------------------------*\
| =========                 |                                                 |
| \\      /  F ield         | OpenFOAM: The Open Source CFD Toolbox           |
|  \\    /   O peration     | Version:  5.x                                   |
|   \\  /    A nd           | Web:      www.OpenFOAM.org                      |
|    \\/     M anipulation  |                                                 |
\*---------------------------------------------------------------------------*/
FoamFile
{
    version     2.0;
    format      ascii;
    class       surfaceScalarField;
    location    "0.1";
    object      alphaPhi10;
}
// * * * * * * * * * * * * * * * * * * * * * * * * * * * * * * * * * * * * * //

dimensions      [0 3 -1 0 0 0 0];

internalField   nonuniform List<scalar> 
15580
(
-4.44408e-18
9.52333e-12
1.21634e-19
6.93743e-11
2.74229e-18
1.51405e-10
3.59412e-18
2.4542e-10
3.59081e-18
3.42779e-10
3.2021e-18
4.35743e-10
2.60018e-18
5.17799e-10
1.84494e-18
5.83785e-10
9.80999e-19
6.29875e-10
7.54946e-20
6.53548e-10
-7.85973e-19
6.53548e-10
-1.51942e-18
6.29875e-10
-2.0717e-18
5.83785e-10
-2.45403e-18
5.17799e-10
-2.77088e-18
4.35743e-10
-3.21626e-18
3.42779e-10
-3.92665e-18
2.4542e-10
-4.54045e-18
1.51405e-10
-3.32708e-18
6.93743e-11
9.5233e-12
-3.00695e-19
9.52333e-12
7.99611e-18
6.93743e-11
1.01585e-17
1.51405e-10
9.80384e-18
2.4542e-10
8.54537e-18
3.42779e-10
7.09012e-18
4.35743e-10
5.55707e-18
5.17799e-10
3.89598e-18
5.83785e-10
2.10292e-18
6.29875e-10
2.77807e-19
6.53548e-10
-1.40572e-18
6.53548e-10
-2.76666e-18
6.29875e-10
-3.71356e-18
5.83785e-10
-4.33043e-18
5.17799e-10
-4.96007e-18
4.35743e-10
-6.18454e-18
3.42779e-10
-8.5077e-18
2.4542e-10
-1.14863e-17
1.51405e-10
-1.20885e-17
6.93743e-11
9.52329e-12
2.38136e-17
9.5233e-12
2.40933e-17
6.93743e-11
2.07209e-17
1.51405e-10
1.62903e-17
2.4542e-10
1.24124e-17
3.42779e-10
9.38562e-18
4.35743e-10
6.93576e-18
5.17799e-10
4.72582e-18
5.83785e-10
2.58443e-18
6.29875e-10
5.36465e-19
6.53548e-10
-1.26157e-18
6.53548e-10
-2.62632e-18
6.29875e-10
-3.48345e-18
5.83785e-10
-3.97854e-18
5.17799e-10
-4.55549e-18
4.35743e-10
-5.9091e-18
3.42779e-10
-8.62318e-18
2.4542e-10
-1.25971e-17
1.51405e-10
-1.39769e-17
6.93743e-11
9.52327e-12
2.95613e-17
9.52327e-12
3.22178e-17
6.93743e-11
2.71786e-17
1.51405e-10
2.09127e-17
2.4542e-10
1.56221e-17
3.42779e-10
1.15096e-17
4.35743e-10
8.27344e-18
5.17799e-10
5.53197e-18
5.83785e-10
3.04377e-18
6.29875e-10
7.74426e-19
6.53548e-10
-1.15965e-18
6.53548e-10
-2.60267e-18
6.29875e-10
-3.48178e-18
5.83785e-10
-3.89658e-18
5.17799e-10
-4.15707e-18
4.35743e-10
-4.71245e-18
3.42779e-10
-5.92845e-18
2.4542e-10
-7.74332e-18
1.51405e-10
-8.70029e-18
6.93743e-11
9.52327e-12
2.33151e-17
9.52325e-12
2.79678e-17
6.93743e-11
2.58017e-17
1.51405e-10
2.13706e-17
2.4542e-10
1.68801e-17
3.42779e-10
1.29032e-17
4.35743e-10
9.45162e-18
5.17799e-10
6.36617e-18
5.83785e-10
3.51565e-18
6.29875e-10
9.0029e-19
6.53548e-10
-1.36565e-18
6.53548e-10
-3.12779e-18
6.29875e-10
-4.27677e-18
5.83785e-10
-4.79693e-18
5.17799e-10
-4.72685e-18
4.35743e-10
-4.07799e-18
3.42779e-10
-2.85968e-18
2.4542e-10
-1.34818e-18
1.51405e-10
1.03657e-18
6.93743e-11
9.52327e-12
8.14524e-18
9.52324e-12
1.57966e-17
6.93743e-11
1.85554e-17
1.51405e-10
1.81951e-17
2.4542e-10
1.61064e-17
3.42779e-10
1.32256e-17
4.35743e-10
1.01052e-17
5.17799e-10
6.94349e-18
5.83785e-10
3.81728e-18
6.29875e-10
8.27461e-19
6.53548e-10
-1.88952e-18
6.53548e-10
-4.19124e-18
6.29875e-10
-5.92976e-18
5.83785e-10
-6.96695e-18
5.17799e-10
-7.06314e-18
4.35743e-10
-5.82228e-18
3.42779e-10
-2.79045e-18
2.4542e-10
2.12133e-18
1.51405e-10
8.07383e-18
6.93743e-11
9.52328e-12
-2.92095e-18
9.52325e-12
3.96282e-18
6.93743e-11
1.03692e-17
1.51405e-10
1.39978e-17
2.4542e-10
1.45865e-17
3.42779e-10
1.30721e-17
4.35743e-10
1.04324e-17
5.17799e-10
7.27818e-18
5.83785e-10
3.91038e-18
6.29875e-10
5.19539e-19
6.53548e-10
-2.73027e-18
6.53548e-10
-5.7592e-18
6.29875e-10
-8.42676e-18
5.83785e-10
-1.05295e-17
5.17799e-10
-1.1778e-17
4.35743e-10
-1.1573e-17
3.42779e-10
-9.083e-18
2.4542e-10
-3.60036e-18
1.51405e-10
4.32665e-18
6.93743e-11
9.52328e-12
-8.66467e-18
9.52325e-12
-2.74597e-18
6.93743e-11
4.93414e-18
1.51405e-10
1.11152e-17
2.4542e-10
1.3733e-17
3.42779e-10
1.32512e-17
4.35743e-10
1.08619e-17
5.17799e-10
7.57602e-18
5.83785e-10
3.91864e-18
6.29875e-10
9.34055e-20
6.53548e-10
-3.76102e-18
6.53548e-10
-7.56085e-18
6.29875e-10
-1.12796e-17
5.83785e-10
-1.48622e-17
5.17799e-10
-1.81711e-17
4.35743e-10
-2.07389e-17
3.42779e-10
-2.14226e-17
2.4542e-10
-1.85792e-17
1.51405e-10
-1.10265e-17
6.93743e-11
9.52327e-12
-6.26453e-18
9.52326e-12
-2.4551e-18
6.93743e-11
4.73449e-18
1.51405e-10
1.11881e-17
2.4542e-10
1.43651e-17
3.42779e-10
1.41395e-17
4.35743e-10
1.16502e-17
5.17799e-10
8.06077e-18
5.83785e-10
4.05512e-18
6.29875e-10
-1.45993e-19
6.53548e-10
-4.50441e-18
6.53548e-10
-8.92158e-18
6.29875e-10
-1.35263e-17
5.83785e-10
-1.85593e-17
5.17799e-10
-2.41029e-17
4.35743e-10
-2.98674e-17
3.42779e-10
-3.4658e-17
2.4542e-10
-3.55052e-17
1.51405e-10
-2.82877e-17
6.93742e-11
9.52324e-12
1.60294e-18
9.52326e-12
6.44455e-18
6.93743e-11
1.0647e-17
1.51405e-10
1.46396e-17
2.4542e-10
1.64033e-17
3.42779e-10
1.54914e-17
4.35743e-10
1.2722e-17
5.17799e-10
8.86345e-18
5.83785e-10
4.54754e-18
6.29875e-10
7.96776e-20
6.53548e-10
-4.47268e-18
6.53548e-10
-9.15469e-18
6.29875e-10
-1.4203e-17
5.83785e-10
-1.99999e-17
5.17799e-10
-2.684e-17
4.35743e-10
-3.44299e-17
3.42779e-10
-4.16304e-17
2.4542e-10
-4.48418e-17
1.51405e-10
-3.78948e-17
6.93742e-11
9.5232e-12
1.08358e-17
9.52325e-12
1.7757e-17
6.93742e-11
2.01645e-17
1.51405e-10
2.00443e-17
2.4542e-10
1.87955e-17
3.42779e-10
1.65226e-17
4.35743e-10
1.33489e-17
5.17799e-10
9.47216e-18
5.83785e-10
5.19967e-18
6.29875e-10
8.19508e-19
6.53548e-10
-3.52348e-18
6.53548e-10
-7.94694e-18
6.29875e-10
-1.27265e-17
5.83785e-10
-1.82125e-17
5.17799e-10
-2.45609e-17
4.35743e-10
-3.14419e-17
3.42779e-10
-3.75563e-17
2.4542e-10
-4.02672e-17
1.51405e-10
-3.44316e-17
6.93742e-11
9.52317e-12
1.70604e-17
9.52323e-12
2.53253e-17
6.93742e-11
2.70595e-17
1.51405e-10
2.42578e-17
2.4542e-10
2.03547e-17
3.42779e-10
1.65111e-17
4.35743e-10
1.27535e-17
5.17799e-10
8.9994e-18
5.83785e-10
5.21723e-18
6.29875e-10
1.51682e-18
6.53548e-10
-2.05757e-18
6.53548e-10
-5.61287e-18
6.29875e-10
-9.29421e-18
5.83785e-10
-1.3232e-17
5.17799e-10
-1.73542e-17
4.35743e-10
-2.12259e-17
3.42779e-10
-2.35181e-17
2.4542e-10
-2.32955e-17
1.51405e-10
-1.75703e-17
6.93742e-11
9.52315e-12
1.97155e-17
9.52321e-12
2.74912e-17
6.93742e-11
2.78813e-17
1.51405e-10
2.43348e-17
2.4542e-10
1.93426e-17
3.42779e-10
1.46601e-17
4.35743e-10
1.07063e-17
5.17799e-10
7.30512e-18
5.83785e-10
4.2839e-18
6.29875e-10
1.60827e-18
6.53548e-10
-7.21945e-19
6.53548e-10
-2.76531e-18
6.29875e-10
-4.5755e-18
5.83785e-10
-6.07405e-18
5.17799e-10
-7.10298e-18
4.35743e-10
-7.18848e-18
3.42779e-10
-5.06274e-18
2.4542e-10
-2.22828e-18
1.51405e-10
-7.71662e-19
6.93742e-11
9.52315e-12
2.19239e-17
9.52319e-12
2.4973e-17
6.93742e-11
2.1738e-17
1.51405e-10
1.84968e-17
2.4542e-10
1.43016e-17
3.42779e-10
1.02304e-17
4.35743e-10
7.01085e-18
5.17799e-10
4.53916e-18
5.83785e-10
2.66188e-18
6.29875e-10
1.31801e-18
6.53548e-10
5.19599e-19
6.53548e-10
2.59049e-19
6.29875e-10
5.67708e-19
5.83785e-10
1.54164e-18
5.17799e-10
3.44391e-18
4.35743e-10
6.78982e-18
3.42779e-10
1.24604e-17
2.4542e-10
1.69981e-17
1.51405e-10
1.60493e-17
6.93742e-11
9.52317e-12
1.66839e-17
9.52317e-12
1.37041e-17
6.93742e-11
8.28083e-18
1.51405e-10
6.38463e-18
2.4542e-10
4.89195e-18
3.42779e-10
3.10931e-18
4.35743e-10
1.73012e-18
5.17799e-10
9.33532e-19
5.83785e-10
6.73212e-19
6.29875e-10
9.30744e-19
6.53548e-10
1.72538e-18
6.53548e-10
3.11133e-18
6.29875e-10
5.07772e-18
5.83785e-10
7.72373e-18
5.17799e-10
1.14414e-17
4.35743e-10
1.69066e-17
3.42779e-10
2.35954e-17
2.4542e-10
2.78917e-17
1.51405e-10
2.45262e-17
6.93742e-11
9.52319e-12
1.25826e-18
9.52317e-12
-3.6611e-18
6.93742e-11
-8.353e-18
1.51405e-10
-8.84379e-18
2.4542e-10
-7.29181e-18
3.42779e-10
-5.62663e-18
4.35743e-10
-4.27888e-18
5.17799e-10
-2.91481e-18
5.83785e-10
-1.38763e-18
6.29875e-10
4.25671e-19
6.53548e-10
2.58827e-18
6.53548e-10
5.09158e-18
6.29875e-10
7.79932e-18
5.83785e-10
1.08394e-17
5.17799e-10
1.49754e-17
4.35743e-10
2.06737e-17
3.42779e-10
2.57846e-17
2.4542e-10
2.77267e-17
1.51405e-10
2.38759e-17
6.93742e-11
9.52322e-12
-7.90633e-18
9.52318e-12
-1.79399e-17
6.93742e-11
-2.29574e-17
1.51405e-10
-2.24456e-17
2.4542e-10
-1.84877e-17
3.42779e-10
-1.38804e-17
4.35743e-10
-9.88736e-18
5.17799e-10
-6.43673e-18
5.83785e-10
-3.23594e-18
6.29875e-10
-1.52467e-19
6.53548e-10
2.79414e-18
6.53548e-10
5.51173e-18
6.29875e-10
8.04559e-18
5.83785e-10
1.06931e-17
5.17799e-10
1.40885e-17
4.35743e-10
1.81682e-17
3.42779e-10
2.03999e-17
2.4542e-10
1.90224e-17
1.51405e-10
1.64014e-17
6.93742e-11
9.52323e-12
-1.78938e-17
9.5232e-12
-3.04848e-17
6.93743e-11
-3.43614e-17
1.51405e-10
-3.21539e-17
2.4542e-10
-2.64825e-17
3.42779e-10
-1.99756e-17
4.35743e-10
-1.41694e-17
5.17799e-10
-9.14094e-18
5.83785e-10
-4.68999e-18
6.29875e-10
-8.45533e-19
6.53548e-10
2.3236e-18
6.53548e-10
4.77258e-18
6.29875e-10
6.75147e-18
5.83785e-10
8.72829e-18
5.17799e-10
1.08553e-17
4.35743e-10
1.24692e-17
3.42779e-10
1.12259e-17
2.4542e-10
5.07189e-18
1.51405e-10
1.88787e-18
6.93742e-11
9.52323e-12
-3.31679e-17
9.52323e-12
-4.21526e-17
6.93743e-11
-4.15457e-17
1.51405e-10
-3.7247e-17
2.4542e-10
-3.05852e-17
3.42779e-10
-2.31817e-17
4.35743e-10
-1.64866e-17
5.17799e-10
-1.06858e-17
5.83785e-10
-5.70538e-18
6.29875e-10
-1.53977e-18
6.53548e-10
1.73471e-18
6.53548e-10
4.09707e-18
6.29875e-10
5.76164e-18
5.83785e-10
7.13273e-18
5.17799e-10
8.21265e-18
4.35743e-10
7.92813e-18
3.42779e-10
4.19542e-18
2.4542e-10
-5.52817e-18
1.51405e-10
-1.9743e-17
6.93743e-11
9.52321e-12
-4.30027e-17
9.52327e-12
-4.70504e-17
6.93743e-11
-4.18901e-17
1.51405e-10
-3.64335e-17
2.4542e-10
-3.01163e-17
3.42779e-10
-2.31096e-17
4.35743e-10
-1.65381e-17
5.17799e-10
-1.08004e-17
5.83785e-10
-5.84879e-18
6.29875e-10
-1.65341e-18
6.53548e-10
1.69066e-18
6.53548e-10
4.17749e-18
6.29875e-10
5.97997e-18
5.83785e-10
7.42387e-18
5.17799e-10
8.57082e-18
4.35743e-10
8.47965e-18
3.42779e-10
5.86082e-18
2.4542e-10
8.73728e-19
1.51405e-10
-4.78356e-18
6.93743e-11
9.52321e-12
-3.87643e-17
9.52331e-12
-3.78881e-17
6.93743e-11
-3.2279e-17
1.51405e-10
-2.85317e-17
2.4542e-10
-2.46222e-17
3.42779e-10
-1.96746e-17
4.35743e-10
-1.43818e-17
5.17799e-10
-9.41061e-18
5.83785e-10
-4.91672e-18
6.29875e-10
-9.65306e-19
6.53548e-10
2.36522e-18
6.53548e-10
5.0801e-18
6.29875e-10
7.37977e-18
5.83785e-10
9.59655e-18
5.17799e-10
1.16065e-17
4.35743e-10
1.27359e-17
3.42779e-10
1.27978e-17
2.4542e-10
1.42716e-17
1.51405e-10
1.51247e-17
6.93743e-11
9.52322e-12
-9.28331e-18
9.52332e-12
-1.3898e-17
6.93743e-11
-1.39079e-17
1.51405e-10
-1.52399e-17
2.4542e-10
-1.55369e-17
3.42779e-10
-1.38538e-17
4.35743e-10
-1.06927e-17
5.17799e-10
-7.00664e-18
5.83785e-10
-3.28434e-18
6.29875e-10
2.555e-19
6.53548e-10
3.51646e-18
6.53548e-10
6.53299e-18
6.29875e-10
9.53528e-18
5.83785e-10
1.26676e-17
5.17799e-10
1.54619e-17
4.35743e-10
1.75322e-17
3.42779e-10
1.95145e-17
2.4542e-10
2.33961e-17
1.51405e-10
2.31948e-17
6.93743e-11
9.52325e-12
1.42741e-17
9.52331e-12
8.90422e-18
6.93743e-11
2.9507e-18
1.51405e-10
-2.87651e-18
2.4542e-10
-6.65894e-18
3.42779e-10
-7.84336e-18
4.35743e-10
-6.77544e-18
5.17799e-10
-4.44509e-18
5.83785e-10
-1.56498e-18
6.29875e-10
1.5189e-18
6.53548e-10
4.68159e-18
6.53548e-10
7.97507e-18
6.29875e-10
1.15443e-17
5.83785e-10
1.51785e-17
5.17799e-10
1.82251e-17
4.35743e-10
2.04531e-17
3.42779e-10
2.28587e-17
2.4542e-10
2.56852e-17
1.51405e-10
2.31249e-17
6.93743e-11
9.52327e-12
2.49195e-17
9.52328e-12
1.66698e-17
6.93743e-11
9.11908e-18
1.51405e-10
2.84676e-18
2.4542e-10
-1.59346e-18
3.42779e-10
-3.82213e-18
4.35743e-10
-3.91267e-18
5.17799e-10
-2.5198e-18
5.83785e-10
-3.02145e-19
6.29875e-10
2.37872e-18
6.53548e-10
5.39509e-18
6.53548e-10
8.76944e-18
6.29875e-10
1.24537e-17
5.83785e-10
1.59564e-17
5.17799e-10
1.86549e-17
4.35743e-10
2.02379e-17
3.42779e-10
2.17847e-17
2.4542e-10
2.25412e-17
1.51405e-10
1.76032e-17
6.93743e-11
9.52329e-12
1.54613e-18
9.52328e-12
4.23489e-18
6.93743e-11
2.31125e-18
1.51405e-10
4.74132e-19
2.4542e-10
-1.36966e-18
3.42779e-10
-2.56755e-18
4.35743e-10
-2.62227e-18
5.17799e-10
-1.56185e-18
5.83785e-10
2.74162e-19
6.29875e-10
2.63189e-18
6.53548e-10
5.4045e-18
6.53548e-10
8.53957e-18
6.29875e-10
1.17831e-17
5.83785e-10
1.45813e-17
5.17799e-10
1.6419e-17
4.35743e-10
1.69253e-17
3.42779e-10
1.69933e-17
2.4542e-10
1.66555e-17
1.51405e-10
1.04504e-17
6.93743e-11
9.5233e-12
-8.8789e-18
9.52329e-12
-8.77851e-18
6.93743e-11
-6.80812e-18
1.51405e-10
-4.61552e-18
2.4542e-10
-3.45687e-18
3.42779e-10
-2.97397e-18
4.35743e-10
-2.41086e-18
5.17799e-10
-1.32124e-18
5.83785e-10
3.03273e-19
6.29875e-10
2.35037e-18
6.53548e-10
4.72376e-18
6.53548e-10
7.26559e-18
6.29875e-10
9.59996e-18
5.83785e-10
1.12927e-17
5.17799e-10
1.19718e-17
4.35743e-10
1.16212e-17
3.42779e-10
1.04835e-17
2.4542e-10
9.74937e-18
1.51405e-10
4.0566e-18
6.93743e-11
9.5233e-12
-1.2213e-17
9.5233e-12
-1.48203e-17
6.93743e-11
-1.17963e-17
1.51405e-10
-7.84828e-18
2.4542e-10
-4.9828e-18
3.42779e-10
-3.40036e-18
4.35743e-10
-2.38488e-18
5.17799e-10
-1.2981e-18
5.83785e-10
7.67813e-20
6.29875e-10
1.71384e-18
6.53548e-10
3.48579e-18
6.53548e-10
5.12873e-18
6.29875e-10
6.2635e-18
5.83785e-10
6.64568e-18
5.17799e-10
6.24031e-18
4.35743e-10
5.74941e-18
3.42779e-10
4.48898e-18
2.4542e-10
3.46292e-18
1.51405e-10
1.4139e-21
6.93743e-11
9.5233e-12
-1.08159e-17
9.52331e-12
-1.33813e-17
6.93743e-11
-1.06935e-17
1.51405e-10
-6.95794e-18
2.4542e-10
-4.17885e-18
3.42779e-10
-2.69281e-18
4.35743e-10
-1.88622e-18
5.17799e-10
-1.14272e-18
5.83785e-10
-2.24281e-19
6.29875e-10
8.25152e-19
6.53548e-10
1.79771e-18
6.53548e-10
2.35419e-18
6.29875e-10
2.17908e-18
5.83785e-10
1.25259e-18
5.17799e-10
1.76651e-19
4.35743e-10
1.43077e-19
3.42779e-10
-1.46371e-19
2.4542e-10
-1.09907e-18
1.51405e-10
-1.17853e-18
6.93743e-11
9.5233e-12
-9.80803e-18
9.52332e-12
-4.58965e-18
6.93743e-11
-3.78166e-18
1.51405e-10
-1.82631e-18
2.4542e-10
-7.84736e-19
3.42779e-10
-6.31209e-19
4.35743e-10
-8.14345e-19
5.17799e-10
-8.49466e-19
5.83785e-10
-6.30678e-19
6.29875e-10
-3.18793e-19
6.53548e-10
-2.43402e-19
6.53548e-10
-8.02347e-19
6.29875e-10
-2.22966e-18
5.83785e-10
-4.2328e-18
5.17799e-10
-5.55247e-18
4.35743e-10
-5.07375e-18
3.42779e-10
-3.88789e-18
2.4542e-10
-3.61494e-18
1.51405e-10
-7.47996e-19
6.93743e-11
9.5233e-12
1.69011e-17
9.5233e-12
1.19958e-17
6.93743e-11
8.00297e-18
1.51405e-10
6.06401e-18
2.4542e-10
4.03811e-18
3.42779e-10
2.02039e-18
4.35743e-10
3.49107e-19
5.17799e-10
-7.18248e-19
5.83785e-10
-1.30659e-18
6.29875e-10
-1.75489e-18
6.53548e-10
-2.51594e-18
6.53548e-10
-4.06649e-18
6.29875e-10
-6.50347e-18
5.83785e-10
-9.21515e-18
5.17799e-10
-1.05884e-17
4.35743e-10
-9.85551e-18
3.42779e-10
-7.59336e-18
2.4542e-10
-5.29897e-18
1.51405e-10
-1.13864e-18
6.93743e-11
9.5233e-12
2.50735e-17
9.52328e-12
2.32957e-17
6.93743e-11
1.74852e-17
1.51405e-10
1.2161e-17
2.4542e-10
7.58354e-18
3.42779e-10
3.7144e-18
4.35743e-10
7.6003e-19
5.17799e-10
-1.16206e-18
5.83785e-10
-2.36564e-18
6.29875e-10
-3.41268e-18
6.53548e-10
-4.82943e-18
6.53548e-10
-7.10345e-18
6.29875e-10
-1.02483e-17
5.83785e-10
-1.32376e-17
5.17799e-10
-1.46251e-17
4.35743e-10
-1.41535e-17
3.42779e-10
-1.22071e-17
2.4542e-10
-8.83064e-18
1.51405e-10
-4.06817e-18
6.93743e-11
9.5233e-12
2.57158e-17
9.52325e-12
2.74486e-17
6.93743e-11
2.13579e-17
1.51405e-10
1.3545e-17
2.4542e-10
7.71821e-18
3.42779e-10
3.08802e-18
4.35743e-10
-3.1337e-19
5.17799e-10
-2.47188e-18
5.83785e-10
-3.80749e-18
6.29875e-10
-5.05715e-18
6.53548e-10
-6.86101e-18
6.53548e-10
-9.65829e-18
6.29875e-10
-1.31851e-17
5.83785e-10
-1.6061e-17
5.17799e-10
-1.73244e-17
4.35743e-10
-1.77144e-17
3.42779e-10
-1.76851e-17
2.4542e-10
-1.50306e-17
1.51405e-10
-9.46901e-18
6.93743e-11
9.52329e-12
1.81885e-17
9.52324e-12
2.10142e-17
6.93743e-11
1.57912e-17
1.51405e-10
8.24156e-18
2.4542e-10
3.43576e-18
3.42779e-10
-3.98941e-19
4.35743e-10
-3.02352e-18
5.17799e-10
-4.58438e-18
5.83785e-10
-5.54267e-18
6.29875e-10
-6.55891e-18
6.53548e-10
-8.45006e-18
6.53548e-10
-1.16074e-17
6.29875e-10
-1.50378e-17
5.83785e-10
-1.70301e-17
5.17799e-10
-1.80121e-17
4.35743e-10
-1.97762e-17
3.42779e-10
-2.19742e-17
2.4542e-10
-2.10304e-17
1.51405e-10
-1.49519e-17
6.93743e-11
9.52327e-12
-2.39981e-19
9.52324e-12
2.4636e-18
6.93743e-11
1.76004e-19
1.51405e-10
-3.63902e-18
2.4542e-10
-4.98916e-18
3.42779e-10
-6.06678e-18
4.35743e-10
-6.68181e-18
5.17799e-10
-6.8672e-18
5.83785e-10
-7.08561e-18
6.29875e-10
-7.71299e-18
6.53548e-10
-9.51875e-18
6.53548e-10
-1.25378e-17
6.29875e-10
-1.46433e-17
5.83785e-10
-1.52513e-17
5.17799e-10
-1.64294e-17
4.35743e-10
-1.94524e-17
3.42779e-10
-2.2658e-17
2.4542e-10
-2.30639e-17
1.51405e-10
-1.73018e-17
6.93743e-11
9.52325e-12
-1.21035e-17
9.52325e-12
-1.71974e-17
6.93743e-11
-1.94299e-17
1.51405e-10
-1.83575e-17
2.4542e-10
-1.56309e-17
3.42779e-10
-1.22444e-17
4.35743e-10
-9.78728e-18
5.17799e-10
-8.20186e-18
5.83785e-10
-7.48898e-18
6.29875e-10
-7.89048e-18
6.53548e-10
-9.53399e-18
6.53548e-10
-1.10734e-17
6.29875e-10
-1.10955e-17
5.83785e-10
-1.10958e-17
5.17799e-10
-1.28952e-17
4.35743e-10
-1.66537e-17
3.42779e-10
-1.9844e-17
2.4542e-10
-2.00626e-17
1.51405e-10
-1.58018e-17
6.93743e-11
9.52324e-12
-3.20799e-17
9.52328e-12
-3.9695e-17
6.93743e-11
-3.80156e-17
1.51405e-10
-3.20161e-17
2.4542e-10
-2.51444e-17
3.42779e-10
-1.73618e-17
4.35743e-10
-1.13715e-17
5.17799e-10
-7.8657e-18
5.83785e-10
-6.31976e-18
6.29875e-10
-6.39943e-18
6.53548e-10
-6.95139e-18
6.53548e-10
-6.4686e-18
6.29875e-10
-5.49556e-18
5.83785e-10
-5.61904e-18
5.17799e-10
-8.16388e-18
4.35743e-10
-1.26371e-17
3.42779e-10
-1.63218e-17
2.4542e-10
-1.69262e-17
1.51405e-10
-1.3583e-17
6.93742e-11
9.52322e-12
-5.49994e-17
9.52333e-12
-5.97432e-17
6.93743e-11
-5.16368e-17
1.51405e-10
-4.03316e-17
2.4542e-10
-2.94568e-17
3.42779e-10
-1.93085e-17
4.35743e-10
-1.11516e-17
5.17799e-10
-5.90111e-18
5.83785e-10
-3.33854e-18
6.29875e-10
-2.33536e-18
6.53548e-10
-1.51638e-18
6.53548e-10
-2.65489e-19
6.29875e-10
7.31136e-19
5.83785e-10
2.76036e-19
5.17799e-10
-2.81226e-18
4.35743e-10
-8.11733e-18
3.42779e-10
-1.32975e-17
2.4542e-10
-1.68392e-17
1.51405e-10
-1.39216e-17
6.93742e-11
9.52321e-12
-5.65952e-17
9.52339e-12
-6.26091e-17
6.93743e-11
-5.11065e-17
1.51405e-10
-3.75438e-17
2.4542e-10
-2.55173e-17
3.42779e-10
-1.54381e-17
4.35743e-10
-7.26093e-18
5.17799e-10
-1.75031e-18
5.83785e-10
1.53586e-18
6.29875e-10
3.48471e-18
6.53548e-10
4.93545e-18
6.53548e-10
6.40572e-18
6.29875e-10
7.33236e-18
5.83785e-10
6.48046e-18
5.17799e-10
3.32968e-18
4.35743e-10
-2.09756e-18
3.42779e-10
-8.13465e-18
2.4542e-10
-1.40168e-17
1.51405e-10
-1.49027e-17
6.93742e-11
9.5232e-12
-3.88058e-17
9.52343e-12
-4.60338e-17
6.93743e-11
-3.41707e-17
1.51405e-10
-2.2791e-17
2.4542e-10
-1.2643e-17
3.42779e-10
-4.87175e-18
4.35743e-10
1.28031e-18
5.17799e-10
5.41622e-18
5.83785e-10
8.22312e-18
6.29875e-10
1.01107e-17
6.53548e-10
1.14266e-17
6.53548e-10
1.2679e-17
6.29875e-10
1.34554e-17
5.83785e-10
1.28696e-17
5.17799e-10
1.07099e-17
4.35743e-10
6.72788e-18
3.42779e-10
1.73135e-18
2.4542e-10
-5.34747e-18
1.51405e-10
-1.14075e-17
6.93743e-11
9.52318e-12
-1.64844e-17
9.52345e-12
-1.52707e-17
6.93743e-11
-5.5763e-18
1.51405e-10
1.85899e-18
2.4542e-10
8.08266e-18
3.42779e-10
1.22932e-17
4.35743e-10
1.46744e-17
5.17799e-10
1.60479e-17
5.83784e-10
1.64955e-17
6.29875e-10
1.66107e-17
6.53548e-10
1.72136e-17
6.53548e-10
1.80391e-17
6.29875e-10
1.86838e-17
5.83785e-10
1.92415e-17
5.17799e-10
1.92737e-17
4.35743e-10
1.87142e-17
3.42779e-10
1.71936e-17
2.4542e-10
1.15965e-17
1.51405e-10
1.33604e-18
6.93743e-11
9.52319e-12
9.32138e-18
9.52344e-12
2.76763e-17
6.93743e-11
3.44775e-17
1.51405e-10
3.55419e-17
2.4542e-10
3.50756e-17
3.42779e-10
3.34916e-17
4.35743e-10
3.09908e-17
5.17799e-10
2.82132e-17
5.83785e-10
2.54601e-17
6.29875e-10
2.33792e-17
6.53548e-10
2.24202e-17
6.53548e-10
2.24814e-17
6.29875e-10
2.33132e-17
5.83785e-10
2.52127e-17
5.17799e-10
2.79298e-17
4.35743e-10
3.20115e-17
3.42779e-10
3.56954e-17
2.4542e-10
3.46109e-17
1.51405e-10
2.39202e-17
6.93743e-11
9.52321e-12
7.13328e-17
9.52337e-12
8.41281e-17
6.93743e-11
8.04963e-17
1.51405e-10
7.30368e-17
2.4542e-10
6.35837e-17
3.42779e-10
5.4868e-17
4.35743e-10
4.67922e-17
5.17799e-10
3.96681e-17
5.83785e-10
3.38443e-17
6.29875e-10
2.95664e-17
6.53548e-10
2.6932e-17
6.53548e-10
2.5921e-17
6.29875e-10
2.66054e-17
5.83785e-10
2.93451e-17
5.17799e-10
3.4253e-17
4.35743e-10
4.22291e-17
3.42779e-10
5.07348e-17
2.4542e-10
5.50759e-17
1.51405e-10
4.70723e-17
6.93743e-11
9.52326e-12
1.05995e-16
9.52326e-12
1.2248e-16
6.93743e-11
1.13778e-16
1.51405e-10
1.00362e-16
2.4542e-10
8.49764e-17
3.42779e-10
7.09357e-17
4.35743e-10
5.86965e-17
5.17799e-10
4.83412e-17
5.83785e-10
4.00376e-17
6.29875e-10
3.38293e-17
6.53548e-10
2.96392e-17
6.53548e-10
2.74321e-17
6.29875e-10
2.7417e-17
5.83785e-10
2.98902e-17
5.17799e-10
3.53259e-17
4.35743e-10
4.43225e-17
3.42779e-10
5.46405e-17
2.4542e-10
6.24115e-17
1.51405e-10
5.77103e-17
6.93743e-11
9.52331e-12
9.59413e-17
9.52316e-12
1.22121e-16
6.93742e-11
1.19854e-16
1.51405e-10
1.0811e-16
2.4542e-10
9.29769e-17
3.42779e-10
7.78358e-17
4.35743e-10
6.41122e-17
5.17799e-10
5.23083e-17
5.83785e-10
4.26732e-17
6.29875e-10
3.52073e-17
6.53548e-10
2.97659e-17
6.53548e-10
2.62992e-17
6.29875e-10
2.49028e-17
5.83785e-10
2.56707e-17
5.17799e-10
2.92452e-17
4.35743e-10
3.53536e-17
3.42779e-10
4.28214e-17
2.4542e-10
4.95791e-17
1.51405e-10
4.69146e-17
6.93743e-11
9.52336e-12
6.31234e-17
9.5231e-12
9.55102e-17
6.93742e-11
1.03334e-16
1.51405e-10
9.83697e-17
2.4542e-10
8.79562e-17
3.42779e-10
7.53206e-17
4.35743e-10
6.2563e-17
5.17799e-10
5.10852e-17
5.83785e-10
4.13562e-17
6.29875e-10
3.3407e-17
6.53548e-10
2.71202e-17
6.53548e-10
2.23619e-17
6.29875e-10
1.89662e-17
5.83785e-10
1.68039e-17
5.17799e-10
1.6347e-17
4.35743e-10
1.65325e-17
3.42779e-10
1.71465e-17
2.4542e-10
1.85499e-17
1.51405e-10
1.60323e-17
6.93743e-11
9.52338e-12
3.73141e-17
9.52306e-12
6.64891e-17
6.93742e-11
7.89351e-17
1.51405e-10
8.0259e-17
2.4542e-10
7.48657e-17
3.42779e-10
6.58419e-17
4.35743e-10
5.56197e-17
5.17799e-10
4.56571e-17
5.83785e-10
3.67124e-17
6.29875e-10
2.8904e-17
6.53548e-10
2.21253e-17
6.53548e-10
1.61291e-17
6.29875e-10
1.04921e-17
5.83785e-10
4.95663e-18
5.17799e-10
-3.91424e-19
4.35743e-10
-6.72294e-18
3.42779e-10
-1.39012e-17
2.4542e-10
-1.92746e-17
1.51405e-10
-2.074e-17
6.93743e-11
9.52336e-12
2.32033e-17
9.52304e-12
4.42942e-17
6.93742e-11
5.60097e-17
1.51405e-10
6.01549e-17
2.4542e-10
5.86709e-17
3.42779e-10
5.3049e-17
4.35743e-10
4.55793e-17
5.17799e-10
3.76015e-17
5.83785e-10
2.98834e-17
6.29875e-10
2.26117e-17
6.53548e-10
1.56704e-17
6.53548e-10
8.72724e-18
6.29875e-10
1.25494e-18
5.83785e-10
-7.04888e-18
5.17799e-10
-1.63428e-17
4.35743e-10
-2.73267e-17
3.42779e-10
-3.97313e-17
2.4542e-10
-4.97372e-17
1.51405e-10
-4.80715e-17
6.93743e-11
9.52331e-12
1.87765e-17
9.52302e-12
3.03667e-17
6.93741e-11
3.77599e-17
1.51405e-10
4.11988e-17
2.4542e-10
4.17501e-17
3.42779e-10
3.90344e-17
4.35743e-10
3.40599e-17
5.17799e-10
2.81658e-17
5.83785e-10
2.19347e-17
6.29875e-10
1.55362e-17
6.53548e-10
8.87798e-18
6.53548e-10
1.63788e-18
6.29875e-10
-6.65534e-18
5.83785e-10
-1.62009e-17
5.17799e-10
-2.70537e-17
4.35743e-10
-3.92455e-17
3.42779e-10
-5.19478e-17
2.4542e-10
-6.07704e-17
1.51405e-10
-5.28649e-17
6.93743e-11
9.52326e-12
1.50323e-17
9.52301e-12
1.88496e-17
6.93741e-11
2.15867e-17
1.51405e-10
2.31303e-17
2.4542e-10
2.43183e-17
3.42779e-10
2.38834e-17
4.35743e-10
2.15915e-17
5.17799e-10
1.80442e-17
5.83785e-10
1.3635e-17
6.29875e-10
8.55668e-18
6.53548e-10
2.80525e-18
6.53548e-10
-3.83036e-18
6.29875e-10
-1.16272e-17
5.83785e-10
-2.05222e-17
5.17799e-10
-3.02706e-17
4.35743e-10
-4.04134e-17
3.42779e-10
-4.93643e-17
2.4542e-10
-5.23953e-17
1.51405e-10
-3.99616e-17
6.93743e-11
9.52322e-12
8.75173e-18
9.523e-12
3.66635e-18
6.93741e-11
2.58229e-18
1.51405e-10
3.57207e-18
2.4542e-10
5.79939e-18
3.42779e-10
7.7714e-18
4.35743e-10
8.43803e-18
5.17799e-10
7.62913e-18
5.83785e-10
5.49121e-18
6.29875e-10
2.26924e-18
6.53548e-10
-1.89352e-18
6.53548e-10
-7.01512e-18
6.29875e-10
-1.30601e-17
5.83785e-10
-1.97068e-17
5.17799e-10
-2.6498e-17
4.35743e-10
-3.27037e-17
3.42779e-10
-3.68378e-17
2.4542e-10
-3.51226e-17
1.51405e-10
-2.19981e-17
6.93743e-11
9.52319e-12
-1.07699e-17
9.52301e-12
-2.03842e-17
6.93742e-11
-2.14896e-17
1.51405e-10
-1.82041e-17
2.4542e-10
-1.38259e-17
3.42779e-10
-8.95066e-18
4.35743e-10
-5.01147e-18
5.17799e-10
-2.75084e-18
5.83785e-10
-2.21667e-18
6.29875e-10
-3.12274e-18
6.53548e-10
-5.14644e-18
6.53548e-10
-8.03091e-18
6.29875e-10
-1.14062e-17
5.83785e-10
-1.47617e-17
5.17799e-10
-1.76378e-17
4.35743e-10
-1.92942e-17
3.42779e-10
-1.93602e-17
2.4542e-10
-1.59958e-17
1.51405e-10
-7.66309e-18
6.93742e-11
9.52319e-12
-3.92637e-17
9.52305e-12
-5.01149e-17
6.93742e-11
-4.80625e-17
1.51405e-10
-4.07422e-17
2.4542e-10
-3.30491e-17
3.42779e-10
-2.51081e-17
4.35743e-10
-1.79821e-17
5.17799e-10
-1.26571e-17
5.83785e-10
-9.34524e-18
6.29875e-10
-7.7417e-18
6.53548e-10
-7.33664e-18
6.53548e-10
-7.56274e-18
6.29875e-10
-7.74973e-18
5.83785e-10
-7.27219e-18
5.17799e-10
-5.77904e-18
4.35743e-10
-2.91131e-18
3.42779e-10
4.12264e-19
2.4542e-10
2.78214e-18
1.51405e-10
2.78848e-18
6.93742e-11
9.52319e-12
-6.47811e-17
9.52311e-12
-7.66606e-17
6.93742e-11
-7.14396e-17
1.51405e-10
-6.05148e-17
2.4542e-10
-4.93716e-17
3.42779e-10
-3.88569e-17
4.35743e-10
-2.92661e-17
5.17799e-10
-2.14525e-17
5.83785e-10
-1.57286e-17
6.29875e-10
-1.18004e-17
6.53548e-10
-9.00129e-18
6.53548e-10
-6.48663e-18
6.29875e-10
-3.34382e-18
5.83785e-10
1.14552e-18
5.17799e-10
7.21771e-18
4.35743e-10
1.46284e-17
3.42779e-10
2.17233e-17
2.4542e-10
2.34944e-17
1.51405e-10
1.59126e-17
6.93743e-11
9.5232e-12
-7.69098e-17
9.52319e-12
-9.04284e-17
6.93742e-11
-8.48307e-17
1.51405e-10
-7.30477e-17
2.4542e-10
-6.0085e-17
3.42779e-10
-4.83502e-17
4.35743e-10
-3.76115e-17
5.17799e-10
-2.84229e-17
5.83785e-10
-2.11164e-17
6.29875e-10
-1.54312e-17
6.53548e-10
-1.06101e-17
6.53548e-10
-5.62197e-18
6.29875e-10
6.03615e-19
5.83785e-10
8.84974e-18
5.17799e-10
1.93531e-17
4.35743e-10
3.14206e-17
3.42779e-10
4.30931e-17
2.4542e-10
4.74567e-17
1.51405e-10
3.59309e-17
6.93743e-11
9.52324e-12
-7.05667e-17
9.52326e-12
-8.62057e-17
6.93742e-11
-8.3754e-17
1.51405e-10
-7.50923e-17
2.4542e-10
-6.33633e-17
3.42779e-10
-5.24053e-17
4.35743e-10
-4.2188e-17
5.17799e-10
-3.3037e-17
5.83785e-10
-2.52767e-17
6.29875e-10
-1.86893e-17
6.53548e-10
-1.2511e-17
6.53548e-10
-5.66538e-18
6.29875e-10
2.93218e-18
5.83785e-10
1.40817e-17
5.17799e-10
2.81023e-17
4.35743e-10
4.42355e-17
3.42779e-10
6.02081e-17
2.4542e-10
6.90741e-17
1.51405e-10
5.77295e-17
6.93743e-11
9.5233e-12
-4.89415e-17
9.52331e-12
-6.49576e-17
6.93742e-11
-6.88746e-17
1.51405e-10
-6.65747e-17
2.4542e-10
-5.92727e-17
3.42779e-10
-5.11567e-17
4.35743e-10
-4.30075e-17
5.17799e-10
-3.52227e-17
5.83785e-10
-2.81509e-17
6.29875e-10
-2.1612e-17
6.53548e-10
-1.49249e-17
6.53548e-10
-7.14621e-18
6.29875e-10
2.64017e-18
5.83785e-10
1.51571e-17
5.17799e-10
3.07183e-17
4.35743e-10
4.88277e-17
3.42779e-10
6.72136e-17
2.4542e-10
8.00179e-17
1.51405e-10
7.07013e-17
6.93743e-11
9.52337e-12
-2.19405e-17
9.52333e-12
-3.68313e-17
6.93742e-11
-4.7012e-17
1.51405e-10
-5.14495e-17
2.4542e-10
-5.01624e-17
3.42779e-10
-4.61311e-17
4.35743e-10
-4.09736e-17
5.17799e-10
-3.54419e-17
5.83785e-10
-2.9906e-17
6.29875e-10
-2.42246e-17
6.53548e-10
-1.79067e-17
6.53548e-10
-1.03236e-17
6.29875e-10
-8.8667e-19
5.83785e-10
1.08198e-17
5.17799e-10
2.49816e-17
4.35743e-10
4.13435e-17
3.42779e-10
5.84106e-17
2.4542e-10
7.14524e-17
1.51405e-10
6.464e-17
6.93743e-11
9.52343e-12
1.1144e-18
9.52333e-12
-1.25757e-17
6.93743e-11
-2.71177e-17
1.51405e-10
-3.56941e-17
2.4542e-10
-3.96431e-17
3.42779e-10
-3.96264e-17
4.35743e-10
-3.75716e-17
5.17799e-10
-3.45164e-17
5.83785e-10
-3.08407e-17
6.29875e-10
-2.64954e-17
6.53548e-10
-2.12877e-17
6.53548e-10
-1.50341e-17
6.29875e-10
-7.59114e-18
5.83785e-10
9.67257e-19
5.17799e-10
1.05359e-17
4.35743e-10
2.08701e-17
3.42779e-10
3.16923e-17
2.4542e-10
4.00771e-17
1.51405e-10
3.62579e-17
6.93743e-11
9.52347e-12
1.39389e-17
9.52332e-12
2.96019e-19
6.93743e-11
-1.57846e-17
1.51405e-10
-2.48935e-17
2.4542e-10
-3.14125e-17
3.42779e-10
-3.40165e-17
4.35743e-10
-3.42961e-17
5.17799e-10
-3.32512e-17
5.83785e-10
-3.12085e-17
6.29875e-10
-2.82823e-17
6.53548e-10
-2.46413e-17
6.53548e-10
-2.05625e-17
6.29875e-10
-1.63879e-17
5.83785e-10
-1.27253e-17
5.17799e-10
-9.98806e-18
4.35743e-10
-8.60771e-18
3.42779e-10
-8.08156e-18
2.4542e-10
-8.04655e-18
1.51405e-10
-9.27678e-18
6.93743e-11
9.52346e-12
1.53202e-17
9.5233e-12
1.24688e-18
6.93743e-11
-1.44969e-17
1.51405e-10
-2.21055e-17
2.4542e-10
-2.78588e-17
3.42779e-10
-3.09682e-17
4.35743e-10
-3.21719e-17
5.17799e-10
-3.21242e-17
5.83785e-10
-3.10795e-17
6.29875e-10
-2.93228e-17
6.53548e-10
-2.73277e-17
6.53548e-10
-2.56999e-17
6.29875e-10
-2.5167e-17
5.83785e-10
-2.67379e-17
5.17799e-10
-3.10504e-17
4.35743e-10
-3.8761e-17
3.42779e-10
-4.95121e-17
2.4542e-10
-5.92196e-17
1.51405e-10
-5.5961e-17
6.93743e-11
9.5234e-12
5.73924e-18
9.5233e-12
-9.07422e-18
6.93743e-11
-2.11247e-17
1.51405e-10
-2.60788e-17
2.4542e-10
-2.89264e-17
3.42779e-10
-3.05528e-17
4.35743e-10
-3.12017e-17
5.17799e-10
-3.1069e-17
5.83785e-10
-3.03041e-17
6.29875e-10
-2.93002e-17
6.53548e-10
-2.86632e-17
6.53548e-10
-2.90883e-17
6.29875e-10
-3.14427e-17
5.83785e-10
-3.67874e-17
5.17799e-10
-4.59084e-17
4.35743e-10
-5.9557e-17
3.42779e-10
-7.77964e-17
2.4542e-10
-9.47119e-17
1.51405e-10
-8.61771e-17
6.93743e-11
9.52332e-12
-1.20117e-17
9.52331e-12
-2.42217e-17
6.93743e-11
-3.0809e-17
1.51405e-10
-3.26863e-17
2.4542e-10
-3.21609e-17
3.42779e-10
-3.13978e-17
4.35743e-10
-3.05886e-17
5.17799e-10
-2.96518e-17
5.83785e-10
-2.86557e-17
6.29875e-10