/*--------------------------------*- C++ -*----------------------------------*\
| =========                 |                                                 |
| \\      /  F ield         | OpenFOAM: The Open Source CFD Toolbox           |
|  \\    /   O peration     | Version:  5.x                                   |
|   \\  /    A nd           | Web:      www.OpenFOAM.org                      |
|    \\/     M anipulation  |                                                 |
\*---------------------------------------------------------------------------*/
FoamFile
{
    version     2.0;
    format      ascii;
    class       surfaceScalarField;
    location    "0.1";
    object      phi;
}
// * * * * * * * * * * * * * * * * * * * * * * * * * * * * * * * * * * * * * //

dimensions      [0 3 -1 0 0 0 0];

internalField   nonuniform List<scalar> 
15580
(
-4.46397e-18
9.43982e-12
1.54608e-19
6.9214e-11
2.8171e-18
1.51203e-10
3.68872e-18
2.45182e-10
3.67996e-18
3.42509e-10
3.26428e-18
4.35447e-10
2.62544e-18
5.17481e-10
1.83072e-18
5.83451e-10
9.35754e-19
6.29531e-10
1.13773e-20
6.53199e-10
-8.58244e-19
6.53199e-10
-1.59268e-18
6.29531e-10
-2.14466e-18
5.83451e-10
-2.52802e-18
5.17481e-10
-2.8483e-18
4.35447e-10
-3.29491e-18
3.42509e-10
-3.99925e-18
2.45182e-10
-4.59639e-18
1.51203e-10
-3.36087e-18
6.92139e-11
9.43979e-12
-3.34339e-19
9.43982e-12
8.12523e-18
6.9214e-11
1.03945e-17
1.51203e-10
1.00813e-17
2.45182e-10
8.79487e-18
3.42509e-10
7.25773e-18
4.35447e-10
5.61719e-18
5.17481e-10
3.84915e-18
5.83451e-10
1.97359e-18
6.29531e-10
9.86722e-20
6.53199e-10
-1.60754e-18
6.53199e-10
-2.97737e-18
6.29531e-10
-3.93277e-18
5.83451e-10
-4.56447e-18
5.17481e-10
-5.21218e-18
4.35447e-10
-6.4449e-18
3.42509e-10
-8.74931e-18
2.45182e-10
-1.16712e-17
1.51203e-10
-1.21843e-17
6.92139e-11
9.43978e-12
2.38013e-17
9.43979e-12
2.43277e-17
6.9214e-11
2.11001e-17
1.51203e-10
1.67142e-17
2.45182e-10
1.27774e-17
3.42509e-10
9.61635e-18
4.35447e-10
7.00078e-18
5.17481e-10
4.63528e-18
5.83451e-10
2.37689e-18
6.29531e-10
2.58877e-19
6.53199e-10
-1.57519e-18
6.53199e-10
-2.96265e-18
6.29531e-10
-3.8466e-18
5.83451e-10
-4.37846e-18
5.17481e-10
-4.99027e-18
4.35447e-10
-6.35345e-18
3.42509e-10
-9.02639e-18
2.45182e-10
-1.28933e-17
1.51203e-10
-1.4107e-17
6.92139e-11
9.43976e-12
2.95923e-17
9.43976e-12
3.25336e-17
6.9214e-11
2.76488e-17
1.51203e-10
2.1412e-17
2.45182e-10
1.60298e-17
3.42509e-10
1.1745e-17
4.35447e-10
8.30804e-18
5.17481e-10
5.38749e-18
5.83451e-10
2.76808e-18
6.29531e-10
4.1882e-19
6.53199e-10
-1.56286e-18
6.53199e-10
-3.04622e-18
6.29531e-10
-3.97468e-18
5.83451e-10
-4.44595e-18
5.17481e-10
-4.74984e-18
4.35447e-10
-5.30241e-18
3.42509e-10
-6.44055e-18
2.45182e-10
-8.0906e-18
1.51203e-10
-8.80976e-18
6.92139e-11
9.43976e-12
2.34007e-17
9.43974e-12
2.83334e-17
6.92139e-11
2.62997e-17
1.51203e-10
2.18661e-17
2.45182e-10
1.72545e-17
3.42509e-10
1.30836e-17
4.35447e-10
9.42258e-18
5.17481e-10
6.15992e-18
5.83451e-10
3.18447e-18
6.29531e-10
4.91379e-19
6.53199e-10
-1.82825e-18
6.53199e-10
-3.64508e-18
6.29531e-10
-4.86105e-18
5.83451e-10
-5.44907e-18
5.17481e-10
-5.41768e-18
4.35447e-10
-4.7419e-18
3.42509e-10
-3.40277e-18
2.45182e-10
-1.67239e-18
1.51203e-10
1.00575e-18
6.92139e-11
9.43976e-12
8.28658e-18
9.43973e-12
1.61653e-17
6.92139e-11
1.90046e-17
1.51203e-10
1.85993e-17
2.45182e-10
1.63655e-17
3.42509e-10
1.32903e-17
4.35447e-10
9.98063e-18
5.17481e-10
6.67234e-18
5.83451e-10
3.45231e-18
6.29531e-10
4.06312e-19
6.53199e-10
-2.35595e-18
6.53199e-10
-4.71461e-18
6.29531e-10
-6.52572e-18
5.83451e-10
-7.63099e-18
5.17481e-10
-7.75607e-18
4.35447e-10
-6.46533e-18
3.42509e-10
-3.28264e-18
2.45182e-10
1.87693e-18
1.51203e-10
8.141e-18
6.92139e-11
9.43977e-12
-2.73854e-18
9.43974e-12
4.27503e-18
6.92139e-11
1.06855e-17
1.51203e-10
1.42192e-17
2.45182e-10
1.46501e-17
3.42509e-10
1.29654e-17
4.35447e-10
1.01892e-17
5.17481e-10
6.95416e-18
5.83451e-10
3.55476e-18
6.29531e-10
1.57194e-19
6.53199e-10
-3.10827e-18
6.53199e-10
-6.18032e-18
6.29531e-10
-8.91696e-18
5.83451e-10
-1.10886e-17
5.17481e-10
-1.23656e-17
4.35447e-10
-1.21118e-17
3.42509e-10
-9.47591e-18
2.45182e-10
-3.75854e-18
1.51203e-10
4.45275e-18
6.92139e-11
9.43977e-12
-8.4678e-18
9.43975e-12
-2.55706e-18
6.92139e-11
5.03633e-18
1.51203e-10
1.1076e-17
2.45182e-10
1.35414e-17
3.42509e-10
1.29446e-17
4.35447e-10
1.05068e-17
5.17481e-10
7.24253e-18
5.83451e-10
3.64966e-18
6.29531e-10
-1.08918e-19
6.53199e-10
-3.93115e-18
6.53199e-10
-7.75474e-18
6.29531e-10
-1.15451e-17
5.83451e-10
-1.52159e-17
5.17481e-10
-1.85856e-17
4.35447e-10
-2.11465e-17
3.42509e-10
-2.17342e-17
2.45182e-10
-1.87116e-17
1.51203e-10
-1.09318e-17
6.92139e-11
9.43976e-12
-6.08925e-18
9.43975e-12
-2.44902e-18
6.92139e-11
4.56483e-18
1.51203e-10
1.08469e-17
2.45182e-10
1.39058e-17
3.42509e-10
1.36531e-17
4.35447e-10
1.12383e-17
5.17481e-10
7.80177e-18
5.83451e-10
3.97756e-18
6.29531e-10
-7.21656e-20
6.53199e-10
-4.35511e-18
6.53199e-10
-8.79219e-18
6.29531e-10
-1.34996e-17
5.83451e-10
-1.86789e-17
5.17481e-10
-2.43593e-17
4.35447e-10
-3.02018e-17
3.42509e-10
-3.49804e-17
2.45182e-10
-3.57218e-17
1.51203e-10
-2.83292e-17
6.92139e-11
9.43973e-12
1.71426e-18
9.43975e-12
6.23359e-18
6.92139e-11
1.01915e-17
1.51203e-10
1.40149e-17
2.45182e-10
1.57297e-17
3.42509e-10
1.49114e-17
4.35447e-10
1.23609e-17
5.17481e-10
8.79581e-18
5.83451e-10
4.77167e-18
6.29531e-10
5.19322e-19
6.53199e-10
-3.94606e-18
6.53199e-10
-8.68629e-18
6.29531e-10
-1.39152e-17
5.83451e-10
-1.99608e-17
5.17481e-10
-2.70499e-17
4.35447e-10
-3.48235e-17
3.42509e-10
-4.20961e-17
2.45182e-10
-4.52512e-17
1.51203e-10
-3.81357e-17
6.92139e-11
9.43969e-12
1.08466e-17
9.43974e-12
1.73391e-17
6.92139e-11
1.94741e-17
1.51203e-10
1.92276e-17
2.45182e-10
1.80326e-17
3.42509e-10
1.59916e-17
4.35447e-10
1.31806e-17
5.17481e-10
9.714e-18
5.83451e-10
5.80114e-18
6.29531e-10
1.64552e-18
6.53199e-10
-2.65818e-18
6.53199e-10
-7.23394e-18
6.29531e-10
-1.23165e-17
5.83451e-10
-1.81809e-17
5.17481e-10
-2.4895e-17
4.35447e-10
-3.2044e-17
3.42509e-10
-3.82699e-17
2.45182e-10
-4.09135e-17
1.51203e-10
-3.48507e-17
6.92139e-11
9.43966e-12
1.69533e-17
9.43972e-12
2.47615e-17
6.92139e-11
2.62551e-17
1.51203e-10
2.34083e-17
2.45182e-10
1.9679e-17
3.42509e-10
1.61967e-17
4.35447e-10
1.29085e-17
5.17481e-10
9.622e-18
5.83451e-10
6.19527e-18
6.29531e-10
2.654e-18
6.53199e-10
-9.94982e-19
6.53199e-10
-4.84245e-18
6.29531e-10
-8.96715e-18
5.83451e-10
-1.3401e-17
5.17481e-10
-1.79628e-17
4.35447e-10
-2.21217e-17
3.42509e-10
-2.44887e-17
2.45182e-10
-2.41133e-17
1.51203e-10
-1.80385e-17
6.92139e-11
9.43964e-12
1.95061e-17
9.4397e-12
2.68859e-17
6.92139e-11
2.71242e-17
1.51203e-10
2.36453e-17
2.45182e-10
1.89419e-17
3.42509e-10
1.47081e-17
4.35447e-10
1.12599e-17
5.17481e-10
8.29846e-18
5.83451e-10
5.54272e-18
6.29531e-10
2.89013e-18
6.53199e-10
3.28692e-19
6.53199e-10
-2.15407e-18
6.29531e-10
-4.5184e-18
5.83451e-10
-6.56787e-18
5.17481e-10
-8.02674e-18
4.35447e-10
-8.33048e-18
3.42509e-10
-6.16714e-18
2.45182e-10
-3.04762e-18
1.51203e-10
-1.1172e-18
6.92139e-11
9.43964e-12
2.16456e-17
9.43968e-12
2.44517e-17
6.92139e-11
2.1194e-17
1.51203e-10
1.8141e-17
2.45182e-10
1.4316e-17
3.42509e-10
1.0715e-17
4.35447e-10
7.95147e-18
5.17481e-10
5.80441e-18
5.83451e-10
4.03262e-18
6.29531e-10
2.53856e-18
6.53199e-10
1.35689e-18
6.53199e-10
5.56516e-19
6.29531e-10
2.81005e-19
5.83451e-10
7.4946e-19
5.17481e-10
2.33004e-18
4.35447e-10
5.60375e-18
3.42509e-10
1.14637e-17
2.45182e-10
1.64092e-17
1.51203e-10
1.59992e-17
6.92139e-11
9.43966e-12
1.64021e-17
9.43966e-12
1.33814e-17
6.92139e-11
8.07428e-18
1.51203e-10
6.46554e-18
2.45182e-10
5.3712e-18
3.42509e-10
4.00473e-18
4.35447e-10
2.95496e-18
5.17481e-10
2.30884e-18
5.83451e-10
1.96924e-18
6.29531e-10
1.92143e-18
6.53199e-10
2.24195e-18
6.53199e-10
3.08256e-18
6.29531e-10
4.54632e-18
5.83451e-10
6.83754e-18
5.17481e-10
1.04186e-17
4.35447e-10
1.59876e-17
3.42509e-10
2.29924e-17
2.45182e-10
2.77405e-17
1.51203e-10
2.48564e-17
6.92139e-11
9.43968e-12
1.01689e-18
9.43966e-12
-3.73201e-18
6.92139e-11
-8.17581e-18
1.51203e-10
-8.32511e-18
2.45182e-10
-6.40717e-18
3.42509e-10
-4.43965e-18
4.35447e-10
-2.93185e-18
5.17481e-10
-1.60087e-18
5.83451e-10
-3.05378e-19
6.29531e-10
1.12111e-18
6.53199e-10
2.82335e-18
6.53199e-10
4.89239e-18
6.29531e-10
7.28522e-18
5.83451e-10
1.01936e-17
5.17481e-10
1.44004e-17
4.35447e-10
2.03435e-17
3.42509e-10
2.58064e-17
2.45182e-10
2.81139e-17
1.51203e-10
2.45435e-17
6.92139e-11
9.43971e-12
-8.07924e-18
9.43967e-12
-1.7744e-17
6.92139e-11
-2.24307e-17
1.51203e-10
-2.15813e-17
2.45182e-10
-1.73419e-17
3.42509e-10
-1.25744e-17
4.35447e-10
-8.58591e-18
5.17481e-10
-5.30864e-18
5.83451e-10
-2.41143e-18
6.29531e-10
3.10139e-19
6.53199e-10
2.92403e-18
6.53199e-10
5.41798e-18
6.29531e-10
7.88869e-18
5.83451e-10
1.06417e-17
5.17481e-10
1.42748e-17
4.35447e-10
1.86513e-17
3.42509e-10
2.11465e-17
2.45182e-10
1.99133e-17
1.51203e-10
1.72532e-17
6.92139e-11
9.43973e-12
-1.79955e-17
9.43969e-12
-3.009e-17
6.92139e-11
-3.35978e-17
1.51203e-10
-3.10992e-17
2.45182e-10
-2.52534e-17
3.42509e-10
-1.87205e-17
4.35447e-10
-1.30377e-17
5.17481e-10
-8.24359e-18
5.83451e-10
-4.06745e-18
6.29531e-10
-4.57131e-19
6.53199e-10
2.5921e-18
6.53199e-10
5.07764e-18
6.29531e-10
7.24865e-18
5.83451e-10
9.52471e-18
5.17481e-10
1.19714e-17
4.35447e-10
1.38231e-17
3.42509e-10
1.26426e-17
2.45182e-10
6.32051e-18
1.51203e-10
2.72527e-18
6.92139e-11
9.43973e-12
-3.32105e-17
9.43972e-12
-4.16499e-17
6.92139e-11
-4.06872e-17
1.51203e-10
-3.61682e-17
2.45182e-10
-2.9433e-17
3.42509e-10
-2.21e-17
4.35447e-10
-1.55793e-17
5.17481e-10
-9.9876e-18
5.83451e-10
-5.16856e-18
6.29531e-10
-1.04291e-18
6.53199e-10
2.35704e-18
6.53199e-10
5.00701e-18
6.29531e-10
7.06802e-18
5.83451e-10
8.84878e-18
5.17481e-10
1.02338e-17
4.35447e-10
1.00394e-17
3.42509e-10
6.10762e-18
2.45182e-10
-4.11813e-18
1.51203e-10
-1.9094e-17
6.92139e-11
9.43971e-12
-4.29964e-17
9.43977e-12
-4.65239e-17
6.92139e-11
-4.10626e-17
1.51203e-10
-3.54636e-17
2.45182e-10
-2.91498e-17
3.42509e-10
-2.22583e-17
4.35447e-10
-1.58468e-17
5.17481e-10
-1.02302e-17
5.83451e-10
-5.28117e-18
6.29531e-10
-9.16784e-19
6.53199e-10
2.77502e-18
6.53199e-10
5.74266e-18
6.29531e-10
8.06429e-18
5.83451e-10
9.93987e-18
5.17481e-10
1.13037e-17
4.35447e-10
1.11158e-17
3.42509e-10
8.04307e-18
2.45182e-10
2.27461e-18
1.51203e-10
-4.39735e-18
6.92139e-11
9.4397e-12
-3.87101e-17
9.4398e-12
-3.73958e-17
6.92139e-11
-3.15653e-17
1.51203e-10
-2.77463e-17
2.45182e-10
-2.38856e-17
3.42509e-10
-1.90527e-17
4.35447e-10
-1.38624e-17
5.17481e-10
-8.89805e-18
5.83451e-10
-4.24882e-18
6.29531e-10
4.649e-20
6.53199e-10
3.88403e-18
6.53199e-10
7.1907e-18
6.29531e-10
1.00475e-17
5.83451e-10
1.26515e-17
5.17481e-10
1.47587e-17
4.35447e-10
1.56194e-17
3.42509e-10
1.5036e-17
2.45182e-10
1.55507e-17
1.51203e-10
1.5259e-17
6.92139e-11
9.43972e-12
-9.17194e-18
9.43981e-12
-1.34623e-17
6.92139e-11
-1.33388e-17
1.51203e-10
-1.46556e-17
2.45182e-10
-1.50197e-17
3.42509e-10
-1.34241e-17
4.35447e-10
-1.02937e-17
5.17481e-10
-6.50793e-18
5.83451e-10
-2.508e-18
6.29531e-10
1.48938e-18
6.53199e-10
5.33862e-18
6.53199e-10
8.97666e-18
6.29531e-10
1.25069e-17
5.83451e-10
1.59449e-17
5.17481e-10
1.8721e-17
4.35447e-10
2.03995e-17
3.42509e-10
2.16346e-17
2.45182e-10
2.44975e-17
1.51203e-10
2.31494e-17
6.92139e-11
9.43974e-12
1.44541e-17
9.4398e-12
9.28337e-18
6.92139e-11
3.38425e-18
1.51203e-10
-2.46711e-18
2.45182e-10
-6.31667e-18
3.42509e-10
-7.5513e-18
4.35447e-10
-6.44852e-18
5.17481e-10
-3.93924e-18
5.83451e-10
-7.08524e-19
6.29531e-10
2.88103e-18
6.53199e-10
6.6404e-18
6.53199e-10
1.05181e-17
6.29531e-10
1.45381e-17
5.83451e-10
1.8378e-17
5.17481e-10
2.13084e-17
4.35447e-10
2.30764e-17
3.42509e-10
2.47189e-17
2.45182e-10
2.65747e-17
1.51203e-10
2.29775e-17
6.92139e-11
9.43976e-12
2.5151e-17
9.43978e-12
1.69972e-17
6.9214e-11
9.44698e-18
1.51203e-10
3.13133e-18
2.45182e-10
-1.36195e-18
3.42509e-10
-3.60116e-18
4.35447e-10
-3.60353e-18
5.17481e-10
-1.98255e-18
5.83451e-10
6.12856e-19
6.29531e-10
3.79032e-18
6.53199e-10
7.35049e-18
6.53199e-10
1.12163e-17
6.29531e-10
1.52344e-17
5.83451e-10
1.88266e-17
5.17481e-10
2.13236e-17
4.35447e-10
2.24216e-17
3.42509e-10
2.32584e-17
2.45182e-10
2.31803e-17
1.51203e-10
1.74094e-17
6.92139e-11
9.43978e-12
1.80217e-18
9.43977e-12
4.51478e-18
6.9214e-11
2.57145e-18
1.51203e-10
6.97055e-19
2.45182e-10
-1.16977e-18
3.42509e-10
-2.33353e-18
4.35447e-10
-2.2555e-18
5.17481e-10
-9.41423e-19
5.83451e-10
1.26205e-18
6.29531e-10
4.05837e-18
6.53199e-10
7.26748e-18
6.53199e-10
1.07495e-17
6.29531e-10
1.41696e-17
5.83451e-10
1.69206e-17
5.17481e-10
1.84773e-17
4.35447e-10
1.85059e-17
3.42509e-10
1.79723e-17
2.45182e-10
1.70073e-17
1.51203e-10
1.02478e-17
6.92139e-11
9.43979e-12
-8.65092e-18
9.43978e-12
-8.54086e-18
6.9214e-11
-6.57158e-18
1.51203e-10
-4.38035e-18
2.45182e-10
-3.19458e-18
3.42509e-10
-2.62343e-18
4.35447e-10
-1.8877e-18
5.17481e-10
-5.38264e-19
5.83451e-10
1.40913e-18
6.29531e-10
3.79029e-18
6.53199e-10
6.44076e-18
6.53199e-10
9.13629e-18
6.29531e-10
1.14544e-17
5.83451e-10
1.29496e-17
5.17481e-10
1.32801e-17
4.35447e-10
1.24934e-17
3.42509e-10
1.09137e-17
2.45182e-10
9.81332e-18
1.51203e-10
3.88833e-18
6.92139e-11
9.43979e-12
-1.20506e-17
9.43979e-12
-1.46089e-17
6.9214e-11
-1.15299e-17
1.51203e-10
-7.51814e-18
2.45182e-10
-4.55595e-18
3.42509e-10
-2.82423e-18
4.35447e-10
-1.60418e-18
5.17481e-10
-2.74686e-19
5.83451e-10
1.34126e-18
6.29531e-10
3.16261e-18
6.53199e-10
5.00833e-18
6.53199e-10
6.57922e-18
6.29531e-10
7.49281e-18
5.83451e-10
7.53995e-18
5.17481e-10
6.7527e-18
4.35447e-10
5.91364e-18
3.42509e-10
4.41515e-18
2.45182e-10
3.30826e-18
1.51203e-10
-7.11988e-20
6.9214e-11
9.43979e-12
-1.07301e-17
9.4398e-12
-1.31597e-17
6.9214e-11
-1.03347e-17
1.51203e-10
-6.45106e-18
2.45182e-10
-3.49706e-18
3.42509e-10
-1.80594e-18
4.35447e-10
-7.81876e-19
5.17481e-10
1.55742e-19
5.83451e-10
1.19538e-18
6.29531e-10
2.24528e-18
6.53199e-10
3.06891e-18
6.53199e-10
3.33136e-18
6.29531e-10
2.76074e-18
5.83451e-10
1.41373e-18
5.17481e-10
-1.76086e-20
4.35447e-10
-2.61037e-19
3.42509e-10
-5.64442e-19
2.45182e-10
-1.33784e-18
1.51203e-10
-1.09694e-18
6.9214e-11
9.43979e-12
-9.76532e-18
9.43981e-12
-4.30536e-18
6.9214e-11
-3.27066e-18
1.51203e-10
-1.0823e-18
2.45182e-10
2.02491e-19
3.42509e-10
5.9501e-19
4.35447e-10
6.11374e-19
5.17481e-10
6.87646e-19
5.83451e-10
8.81531e-19
6.29531e-10
1.00359e-18
6.53199e-10
7.29286e-19
6.53199e-10
-2.92776e-19
6.29531e-10
-2.21351e-18
5.83451e-10
-4.63995e-18
5.17481e-10
-6.22173e-18
4.35447e-10
-5.7858e-18
3.42509e-10
-4.41777e-18
2.45182e-10
-3.79286e-18
1.51203e-10
-5.03453e-19
6.92139e-11
9.43979e-12
1.69659e-17
9.4398e-12
1.23938e-17
6.9214e-11
8.70258e-18
1.51203e-10
7.0616e-18
2.45182e-10
5.31948e-18
3.42509e-10
3.54098e-18
4.35447e-10
2.01738e-18
5.17481e-10
9.55551e-19
5.83451e-10
1.96669e-19
6.29531e-10
-5.99015e-19
6.53199e-10
-1.84338e-18
6.53199e-10
-3.9324e-18
6.29531e-10
-6.8596e-18
5.83451e-10
-9.91433e-18
5.17481e-10
-1.14157e-17
4.35447e-10
-1.05787e-17
3.42509e-10
-8.02327e-18
2.45182e-10
-5.33935e-18
1.51203e-10
-8.10373e-19
6.92139e-11
9.43979e-12
2.52171e-17
9.43977e-12
2.38312e-17
6.9214e-11
1.83669e-17
1.51203e-10
1.33726e-17
2.45182e-10
9.08385e-18
3.42509e-10
5.42049e-18
4.35447e-10
2.53876e-18
5.17481e-10
5.16534e-19
5.83451e-10
-9.70443e-19
6.29531e-10
-2.45476e-18
6.53199e-10
-4.39317e-18
6.53199e-10
-7.17637e-18
6.29531e-10
-1.07197e-17
5.83451e-10
-1.3925e-17
5.17481e-10
-1.53184e-17
4.35447e-10
-1.46697e-17
3.42509e-10
-1.24394e-17
2.45182e-10
-8.77376e-18
1.51203e-10
-3.81273e-18
6.92139e-11
9.43979e-12
2.59642e-17
9.43975e-12
2.81011e-17
6.9214e-11
2.23687e-17
1.51203e-10
1.48838e-17
2.45182e-10
9.3191e-18
3.42509e-10
4.83872e-18
4.35447e-10
1.43136e-18
5.17481e-10
-9.08221e-19
5.83451e-10
-2.58451e-18
6.29531e-10
-4.28051e-18
6.53199e-10
-6.55311e-18
6.53199e-10
-9.75217e-18
6.29531e-10
-1.35437e-17
5.83451e-10
-1.65169e-17
5.17481e-10
-1.77257e-17
4.35447e-10
-1.79652e-17
3.42509e-10
-1.77695e-17
2.45182e-10
-1.50105e-17
1.51203e-10
-9.45008e-18
6.92139e-11
9.43978e-12
1.85176e-17
9.43973e-12
2.17284e-17
6.9214e-11
1.68475e-17
1.51203e-10
9.59759e-18
2.45182e-10
5.00601e-18
3.42509e-10
1.25779e-18
4.35447e-10
-1.43763e-18
5.17481e-10
-3.22265e-18
5.83451e-10
-4.52048e-18
6.29531e-10
-5.92536e-18
6.53199e-10
-8.17549e-18
6.53199e-10
-1.15989e-17
6.29531e-10
-1.51737e-17
5.83451e-10
-1.71984e-17
5.17481e-10
-1.81418e-17
4.35447e-10
-1.98582e-17
3.42509e-10
-2.20549e-17
2.45182e-10
-2.11861e-17
1.51203e-10
-1.52454e-17
6.92139e-11
9.43976e-12
1.02603e-19
9.43973e-12
3.15842e-18
6.92139e-11
1.18383e-18
1.51203e-10
-2.375e-18
2.45182e-10
-3.56956e-18
3.42509e-10
-4.62263e-18
4.35447e-10
-5.35378e-18
5.17481e-10
-5.77207e-18
5.83451e-10
-6.28707e-18
6.29531e-10
-7.20989e-18
6.53199e-10
-9.25243e-18
6.53199e-10
-1.24211e-17
6.29531e-10
-1.4598e-17
5.83451e-10
-1.52297e-17
5.17481e-10
-1.64326e-17
4.35447e-10
-1.9527e-17
3.42509e-10
-2.28633e-17
2.45182e-10
-2.34388e-17
1.51203e-10
-1.78374e-17
6.92139e-11
9.43974e-12
-1.18095e-17
9.43974e-12
-1.65917e-17
6.9214e-11
-1.85559e-17
1.51203e-10
-1.72823e-17
2.45182e-10
-1.44639e-17
3.42509e-10
-1.11139e-17
4.35447e-10
-8.80559e-18
5.17481e-10
-7.44e-18
5.83451e-10
-6.96181e-18
6.29531e-10
-7.55973e-18
6.53199e-10
-9.33557e-18
6.53199e-10
-1.09471e-17
6.29531e-10
-1.1005e-17
5.83451e-10
-1.10462e-17
5.17481e-10
-1.29295e-17
4.35447e-10
-1.68269e-17
3.42509e-10
-2.01887e-17
2.45182e-10
-2.05609e-17
1.51203e-10
-1.6388e-17
6.92139e-11
9.43973e-12
-3.18704e-17
9.43977e-12
-3.92211e-17
6.9214e-11
-3.7339e-17
1.51203e-10
-3.1215e-17
2.45182e-10
-2.43276e-17
3.42509e-10
-1.66381e-17
4.35447e-10
-1.08188e-17
5.17481e-10
-7.50968e-18
5.83451e-10
-6.13302e-18
6.29531e-10
-6.32337e-18
6.53199e-10
-6.92561e-18
6.53199e-10
-6.4544e-18
6.29531e-10
-5.49021e-18
5.83451e-10
-5.65739e-18
5.17481e-10
-8.29415e-18
4.35447e-10
-1.28904e-17
3.42509e-10
-1.66928e-17
2.45182e-10
-1.73624e-17
1.51203e-10
-1.40114e-17
6.92139e-11
9.43971e-12
-5.48644e-17
9.43982e-12
-5.94253e-17
6.9214e-11
-5.12088e-17
1.51203e-10
-3.98834e-17
2.45182e-10
-2.90844e-17
3.42509e-10
-1.90866e-17
4.35447e-10
-1.11097e-17
5.17481e-10
-6.01743e-18
5.83451e-10
-3.5524e-18
6.29531e-10
-2.57536e-18
6.53199e-10
-1.72762e-18
6.53199e-10
-4.27819e-19
6.29531e-10
6.00945e-19
5.83451e-10
1.41422e-19
5.17481e-10
-2.98453e-18
4.35447e-10
-8.33328e-18
3.42509e-10
-1.35341e-17
2.45182e-10
-1.70541e-17
1.51203e-10
-1.40834e-17
6.92139e-11
9.4397e-12
-5.64906e-17
9.43988e-12
-6.24568e-17
6.9214e-11
-5.09773e-17
1.51203e-10
-3.75224e-17
2.45182e-10
-2.56673e-17
3.42509e-10
-1.57832e-17
4.35447e-10
-7.77341e-18
5.17481e-10
-2.35886e-18
5.83451e-10
9.19303e-19
6.29531e-10
2.93666e-18
6.53199e-10
4.5008e-18
6.53199e-10
6.08973e-18
6.29531e-10
7.11206e-18
5.83451e-10
6.32559e-18
5.17481e-10
3.22018e-18
4.35447e-10
-2.16245e-18
3.42509e-10
-8.14629e-18
2.45182e-10
-1.3978e-17
1.51203e-10
-1.4844e-17
6.92139e-11
9.43968e-12
-3.86876e-17
9.43992e-12
-4.60669e-17
6.9214e-11
-3.43827e-17
1.51203e-10
-2.32394e-17
2.45182e-10
-1.33422e-17
3.42509e-10
-5.77949e-18
4.35447e-10
2.54116e-19
5.17481e-10
4.38329e-18
5.83451e-10
7.28539e-18
6.29531e-10
9.33847e-18
6.53199e-10
1.08478e-17
6.53199e-10
1.22848e-17
6.29531e-10
1.32186e-17
5.83451e-10
1.27612e-17
5.17481e-10
1.07105e-17
4.35447e-10
6.82159e-18
3.42509e-10
1.89274e-18
2.45182e-10
-5.16947e-18
1.51203e-10
-1.12871e-17
6.92139e-11
9.43967e-12
-1.63358e-17
9.43994e-12
-1.55132e-17
6.9214e-11
-6.15036e-18
1.51203e-10
9.51339e-19
2.45182e-10
6.89387e-18
3.42509e-10
1.09297e-17
4.35447e-10
1.32726e-17
5.17481e-10
1.47384e-17
5.83451e-10
1.53749e-17
6.29531e-10
1.57267e-17
6.53199e-10
1.65688e-17
6.53199e-10
1.76098e-17
6.29531e-10
1.84378e-17
5.83451e-10
1.91493e-17
5.17481e-10
1.93085e-17
4.35447e-10
1.88402e-17
3.42509e-10
1.73574e-17
2.45182e-10
1.1726e-17
1.51203e-10
1.3584e-18
6.92139e-11
9.43967e-12
9.4563e-18
9.43993e-12
2.72137e-17
6.9214e-11
3.35748e-17
1.51203e-10
3.42708e-17
2.45182e-10
3.35541e-17
3.42509e-10
3.18711e-17
4.35447e-10
2.94216e-17
5.17481e-10
2.68109e-17
5.83451e-10
2.42892e-17
6.29531e-10
2.24532e-17
6.53199e-10
2.17185e-17
6.53199e-10
2.19716e-17
6.29531e-10
2.29653e-17
5.83451e-10
2.50019e-17
5.17481e-10
2.78278e-17
4.35447e-10
3.19772e-17
3.42509e-10
3.5674e-17
2.45182e-10
3.45467e-17
1.51203e-10
2.37834e-17
6.92139e-11
9.4397e-12
7.13931e-17
9.43986e-12
8.34702e-17
6.92139e-11
7.93697e-17
1.51203e-10
7.15806e-17
2.45182e-10
6.19557e-17
3.42509e-10
5.3225e-17
4.35447e-10
4.52592e-17
5.17481e-10
3.8317e-17
5.83451e-10
3.26926e-17
6.29531e-10
2.85944e-17
6.53199e-10
2.61079e-17
6.53199e-10
2.52192e-17
6.29531e-10
2.60124e-17
5.83451e-10
2.88534e-17
5.17481e-10
3.38488e-17
4.35447e-10
4.18874e-17
3.42509e-10
5.0426e-17
2.45182e-10
5.47867e-17
1.51203e-10
4.6831e-17
6.92139e-11
9.43974e-12
1.05908e-16
9.43975e-12
1.21697e-16
6.92139e-11
1.12589e-16
1.51203e-10
9.89385e-17
2.45182e-10
8.34734e-17
3.42509e-10
6.94733e-17
4.35447e-10
5.73421e-17
5.17481e-10
4.71083e-17
5.83451e-10
3.89018e-17
6.29531e-10
3.2756e-17
6.53199e-10
2.86068e-17
6.53199e-10
2.64407e-17
6.29531e-10
2.64828e-17
5.83451e-10
2.9032e-17
5.17481e-10
3.4554e-17
4.35447e-10
4.36404e-17
3.42509e-10
5.40575e-17
2.45182e-10
6.19621e-17
1.51203e-10
5.74679e-17
6.9214e-11
9.4398e-12
9.5642e-17
9.43965e-12
1.21306e-16
6.92139e-11
1.1877e-16
1.51203e-10
1.06908e-16
2.45182e-10
9.17669e-17
3.42509e-10
7.66696e-17
4.35447e-10
6.29889e-17
5.17481e-10
5.11923e-17
5.83451e-10
4.15219e-17
6.29531e-10
3.39974e-17
6.53199e-10
2.85053e-17
6.53199e-10
2.50217e-17
6.29531e-10
2.36518e-17
5.83451e-10
2.44854e-17
5.17481e-10
2.81554e-17
4.35447e-10
3.43908e-17
3.42509e-10
4.20342e-17
2.45182e-10
4.90436e-17
1.51203e-10
4.67309e-17
6.9214e-11
9.43985e-12
6.26333e-17
9.43959e-12
9.47714e-17
6.92139e-11
1.02486e-16
1.51203e-10
9.75011e-17
2.45182e-10
8.7102e-17
3.42509e-10
7.44621e-17
4.35447e-10
6.16481e-17
5.17481e-10
5.00587e-17
5.83451e-10
4.01875e-17
6.29531e-10
3.21032e-17
6.53199e-10
2.57198e-17
6.53199e-10
2.09176e-17
6.29531e-10
1.75271e-17
5.83451e-10
1.5409e-17
5.17481e-10
1.50337e-17
4.35447e-10
1.53573e-17
3.42509e-10
1.61968e-17
2.45182e-10
1.79409e-17
1.51203e-10
1.58828e-17
6.9214e-11
9.43987e-12
3.67147e-17
9.43955e-12
6.59165e-17
6.92138e-11
7.83812e-17
1.51203e-10
7.97285e-17
2.45182e-10
7.43215e-17
3.42509e-10
6.52186e-17
4.35447e-10
5.48514e-17
5.17481e-10
4.47045e-17
5.83451e-10
3.55764e-17
6.29531e-10
2.76187e-17
6.53199e-10
2.07369e-17
6.53199e-10
1.46764e-17
6.29531e-10
8.99946e-18
5.83451e-10
3.44551e-18
5.17481e-10
-1.87809e-18
4.35447e-10
-8.09736e-18
3.42509e-10
-1.50278e-17
2.45182e-10
-1.99942e-17
1.51203e-10
-2.09127e-17
6.9214e-11
9.43985e-12
2.26227e-17
9.43953e-12
4.3932e-17
6.92138e-11
5.57172e-17
1.51203e-10
5.98661e-17
2.45182e-10
5.83073e-17
3.42509e-10
5.25399e-17
4.35447e-10
4.4884e-17
5.17481e-10
3.6719e-17
5.83451e-10
2.88427e-17
6.29532e-10
2.1448e-17
6.53199e-10
1.44017e-17
6.53199e-10
7.34683e-18
6.29531e-10
-2.52353e-19
5.83451e-10
-8.67471e-18
5.17481e-10
-1.80208e-17
4.35447e-10
-2.89182e-17
3.42509e-10
-4.10423e-17
2.45182e-10
-5.05667e-17
1.51203e-10
-4.82725e-17
6.9214e-11
9.4398e-12
1.83493e-17
9.43951e-12
3.01983e-17
6.92138e-11
3.76198e-17
1.51203e-10
4.0988e-17
2.45182e-10
4.13945e-17
3.42509e-10
3.84996e-17
4.35447e-10
3.33541e-17
5.17481e-10
2.73245e-17
5.83451e-10
2.09912e-17
6.29532e-10
1.44936e-17
6.53199e-10
7.70036e-18
6.53199e-10
2.68314e-19
6.29531e-10
-8.25429e-18
5.83451e-10
-1.80018e-17
5.17481e-10
-2.89362e-17
4.35447e-10
-4.10064e-17
3.42509e-10
-5.33457e-17
2.45182e-10
-6.1595e-17
1.51203e-10
-5.30044e-17
6.92139e-11
9.43975e-12
1.48692e-17
9.4395e-12
1.8801e-17
6.92138e-11
2.1443e-17
1.51203e-10
2.28117e-17
2.45182e-10
2.37969e-17
3.42509e-10
2.31844e-17
4.35447e-10
2.07719e-17
5.17481e-10
1.71542e-17
5.83451e-10
1.2683e-17
6.29532e-10
7.49645e-18
6.53199e-10
1.55363e-18
6.53199e-10
-5.34833e-18
6.29532e-10
-1.34241e-17
5.83451e-10
-2.25091e-17
5.17481e-10
-3.22567e-17
4.35447e-10
-4.21491e-17
3.42509e-10
-5.06119e-17
2.45182e-10
-5.30019e-17
1.51203e-10
-3.99079e-17
6.92139e-11
9.43971e-12
8.85976e-18
9.43949e-12
3.61423e-18
6.92138e-11
2.27054e-18
1.51203e-10
2.983e-18
2.45182e-10
4.97549e-18
3.42509e-10
6.79519e-18
4.35447e-10
7.39106e-18
5.17481e-10
6.54768e-18
5.83451e-10
4.34523e-18
6.29532e-10
9.76853e-19
6.53199e-10
-3.42016e-18
6.53199e-10
-8.81101e-18
6.29532e-10
-1.50619e-17
5.83451e-10
-2.17441e-17
5.17481e-10
-2.83326e-17
4.35447e-10
-3.41025e-17
3.42509e-10
-3.76484e-17
2.45182e-10
-3.53206e-17
1.51203e-10
-2.1693e-17
6.92139e-11
9.43968e-12
-1.04759e-17
9.4395e-12
-2.05721e-17
6.92138e-11
-2.20887e-17
1.51203e-10
-1.9149e-17
2.45182e-10
-1.50089e-17
3.42509e-10
-1.02585e-17
4.35447e-10
-6.37139e-18
5.17481e-10
-4.15883e-18
5.83451e-10
-3.72947e-18
6.29532e-10
-4.81468e-18
6.53199e-10
-7.04977e-18
6.53199e-10
-1.00875e-17
6.29532e-10
-1.34558e-17
5.83451e-10
-1.65784e-17
5.17481e-10
-1.9004e-17
4.35447e-10
-2.00797e-17
3.42509e-10
-1.95703e-17
2.45182e-10
-1.57656e-17
1.51203e-10
-7.20714e-18
6.92139e-11
9.43968e-12
-3.89408e-17
9.43954e-12
-5.0531e-17
6.92138e-11
-4.89737e-17
1.51203e-10
-4.20113e-17
2.45182e-10
-3.45367e-17
3.42509e-10
-2.6711e-17
4.35447e-10
-1.96643e-17
5.17481e-10
-1.44449e-17
5.83451e-10
-1.12877e-17
6.29532e-10
-9.85207e-18
6.53199e-10
-9.54366e-18
6.53199e-10
-9.69804e-18
6.29532e-10
-9.58506e-18
5.83451e-10
-8.59539e-18
5.17481e-10
-6.47697e-18
4.35447e-10
-3.02091e-18
3.42509e-10
7.1265e-19
2.45182e-10
3.23923e-18
1.51203e-10
3.1701e-18
6.92139e-11
9.43968e-12
-6.45974e-17
9.4396e-12
-7.73107e-17
6.92138e-11
-7.2569e-17
1.51203e-10
-6.19566e-17
2.45182e-10
-5.10055e-17
3.42509e-10
-4.06288e-17
4.35447e-10
-3.11869e-17
5.17481e-10
-2.35572e-17
5.83451e-10
-1.80163e-17
6.29532e-10
-1.41847e-17
6.53199e-10
-1.12971e-17
6.53199e-10
-8.44804e-18
6.29532e-10
-4.74421e-18
5.83451e-10
4.24562e-19
5.17481e-10
7.13145e-18
4.35447e-10
1.49748e-17
3.42509e-10
2.22144e-17
2.45182e-10
2.3864e-17
1.51203e-10
1.60151e-17
6.92139e-11
9.4397e-12
-7.69646e-17
9.43968e-12
-9.12173e-17
6.92139e-11
-8.59898e-17
1.51203e-10
-7.4441e-17
2.45182e-10
-6.16605e-17
3.42509e-10
-5.01237e-17
4.35447e-10
-3.96288e-17
5.17481e-10
-3.06935e-17
5.83451e-10
-2.35579e-17
6.29531e-10
-1.78519e-17
6.53199e-10
-1.27462e-17
6.53199e-10
-7.22005e-18
6.29532e-10
-3.0899e-19
5.83451e-10
8.60041e-18
5.17481e-10
1.9577e-17
4.35447e-10
3.18278e-17
3.42509e-10
4.34034e-17
2.45182e-10
4.75033e-17
1.51203e-10
3.57164e-17
6.92139e-11
9.43973e-12
-7.0848e-17
9.43975e-12
-8.69684e-17
6.92139e-11
-8.47335e-17
1.51203e-10
-7.62388e-17
2.45182e-10
-6.47188e-17
3.42509e-10
-5.40473e-17
4.35447e-10
-4.41635e-17
5.17481e-10
-3.52971e-17
5.83451e-10
-2.76493e-17
6.29531e-10
-2.09107e-17
6.53199e-10
-1.43071e-17
6.53199e-10
-6.85234e-18
6.29532e-10
2.37641e-18
5.83451e-10
1.40086e-17
5.17481e-10
2.82552e-17
4.35447e-10
4.43546e-17
3.42509e-10
6.01309e-17
2.45182e-10
6.87889e-17
1.51203e-10
5.73617e-17
6.92139e-11
9.43979e-12
-4.93413e-17
9.4398e-12
-6.55332e-17
6.92139e-11
-6.95395e-17
1.51203e-10
-6.739e-17
2.45182e-10
-6.03607e-17
3.42509e-10
-5.26171e-17
4.35447e-10
-4.4846e-17
5.17481e-10
-3.73132e-17
5.83451e-10
-3.02563e-17
6.29531e-10
-2.34595e-17
6.53199e-10
-1.63069e-17
6.53199e-10
-7.99782e-18
6.29531e-10
2.2231e-18
5.83451e-10
1.49707e-17
5.17481e-10
3.05474e-17
4.35447e-10
4.85418e-17
3.42509e-10
6.68126e-17
2.45182e-10
7.96111e-17
1.51203e-10
7.04361e-17
6.9214e-11
9.43986e-12
-2.23232e-17
9.43982e-12
-3.71449e-17
6.92139e-11
-4.7366e-17
1.51203e-10
-5.19955e-17
2.45182e-10
-5.10492e-17
3.42509e-10
-4.74244e-17
4.35447e-10
-4.26053e-17
5.17481e-10
-3.72206e-17
5.83451e-10
-3.15846e-17
6.29531e-10
-2.55962e-17
6.53199e-10
-1.88842e-17
6.53199e-10
-1.0963e-17
6.29531e-10
-1.34269e-18
5.83451e-10
1.03825e-17
5.17481e-10
2.44748e-17
4.35447e-10
4.07967e-17
3.42509e-10
5.79429e-17
2.45182e-10
7.11926e-17
1.51203e-10
6.46475e-17
6.9214e-11
9.43992e-12
8.33964e-19
9.43982e-12
-1.26764e-17
6.92139e-11
-2.72908e-17
1.51203e-10
-3.61219e-17
2.45182e-10
-4.04291e-17
3.42509e-10
-4.07551e-17
4.35447e-10
-3.89024e-17
5.17481e-10
-3.58417e-17
5.83451e-10
-3.1977e-17
6.29531e-10
-2.73601e-17
6.53199e-10
-2.19238e-17
6.53199e-10
-1.55694e-17
6.29531e-10
-8.15483e-18
5.83451e-10
3.24955e-19
5.17481e-10
9.87651e-18
4.35447e-10
2.03337e-17
3.42509e-10
3.14152e-17
2.45182e-10
4.01044e-17
1.51203e-10
3.65117e-17
6.9214e-11
9.43996e-12
1.37608e-17
9.43981e-12
2.71536e-19
6.92139e-11
-1.59438e-17
1.51203e-10
-2.53248e-17
2.45182e-10
-3.21226e-17
3.42509e-10
-3.49021e-17
4.35447e-10
-3.51903e-17
5.17481e-10
-3.40051e-17
5.83451e-10
-3.1765e-17
6.29531e-10
-2.86979e-17
6.53199e-10
-2.50449e-17
6.53199e-10
-2.10725e-17
6.29531e-10
-1.70339e-17
5.83451e-10
-1.34206e-17
5.17481e-10
-1.05691e-17
4.35447e-10
-8.92247e-18
3.42509e-10
-8.0763e-18
2.45182e-10
-7.8014e-18
1.51203e-10
-8.96197e-18
6.9214e-11
9.43995e-12
1.51805e-17
9.43979e-12
1.16623e-18
6.92139e-11
-1.47332e-17
1.51203e-10
-2.25339e-17
2.45182e-10
-2.83915e-17
3.42509e-10
-3.14627e-17
4.35447e-10
-3.2513e-17
5.17481e-10
-3.22883e-17
5.83451e-10
-3.11524e-17
6.29531e-10
-2.94551e-17
6.53199e-10
-2.76484e-17
6.53199e-10
-2.62379e-17
6.29531e-10
-2.58235e-17
5.83451e-10
-2.73311e-17
5.17481e-10
-3.1408e-17
4.35447e-10
-3.88132e-17
3.42509e-10
-4.93273e-17
2.45182e-10
-5.89592e-17
1.51203e-10
-5.57806e-17
6.9214e-11
9.4399e-12
5.57494e-18
9.43979e-12
-9.2483e-18
6.9214e-11
-2.13918e-17
1.51203e-10
-2.63702e-17
2.45182e-10
-2.91177e-17
3.42509e-10
-3.05482e-17
4.35447e-10
-3.10056e-17
5.17481e-10
-3.07975e-17
5.83451e-10
-3.0135e-17
6.29531e-10
-2.9383e-17
6.53199e-10
-2.90374e-17
6.53199e-10
-2.96557e-17
6.29531e-10
-3.20126e-17
5.83451e-10
-3.71735e-17
5.17481e-10
-4.60241e-17
4.35447e-10
-5.94551e-17
3.42509e-10
-7.76271e-17
2.45182e-10
-9.46161e-17
1.51203e-10
-8.61914e-17
6.9214e-11
9.43981e-12
-1.22074e-17
9.4398e-12
-2.44125e-17
6.9214e-11
-3.09655e-17
1.51203e-10
-3.26886e-17
2.45182e-10
-3.19305e-17
3.42509e-10
-3.09565e-17
4.35447e-10
-3.00697e-17
5.17481e-10
-2.92501e-17