/*--------------------------------*- C++ -*----------------------------------*\
| =========                 |                                                 |
| \\      /  F ield         | OpenFOAM: The Open Source CFD Toolbox           |
|  \\    /   O peration     | Version:  5.x                                   |
|   \\  /    A nd           | Web:      www.OpenFOAM.org                      |
|    \\/     M anipulation  |                                                 |
\*---------------------------------------------------------------------------*/
FoamFile
{
    version     2.0;
    format      ascii;
    class       volVectorField;
    location    "0.1";
    object      U;
}
// * * * * * * * * * * * * * * * * * * * * * * * * * * * * * * * * * * * * * //

dimensions      [0 1 -1 0 0 0 0];

internalField   nonuniform List<vector> 
8000
(
(-5.48903e-11 0.000188796 0)
(-4.43801e-11 0.00138428 0)
(3.11777e-11 0.00302406 0)
(6.76087e-11 0.00490364 0)
(7.50025e-11 0.00685018 0)
(6.99013e-11 0.00870893 0)
(5.91767e-11 0.0103496 0)
(4.48414e-11 0.011669 0)
(2.78555e-11 0.0125906 0)
(9.45285e-12 0.013064 0)
(-8.75606e-12 0.013064 0)
(-2.50214e-11 0.0125906 0)
(-3.7929e-11 0.011669 0)
(-4.69822e-11 0.0103496 0)
(-5.32422e-11 0.00870893 0)
(-5.97875e-11 0.00685018 0)
(-7.10006e-11 0.00490364 0)
(-8.8863e-11 0.00302406 0)
(-9.95868e-11 0.00138428 0)
(-1.73651e-11 0.000188796 0)
(-1.29997e-11 0.000188796 0)
(1.00944e-10 0.00138428 0)
(1.9141e-10 0.00302406 0)
(2.077e-10 0.00490364 0)
(1.88935e-10 0.00685018 0)
(1.59968e-10 0.00870893 0)
(1.28652e-10 0.0103496 0)
(9.50543e-11 0.011669 0)
(5.85975e-11 0.0125906 0)
(2.05757e-11 0.013064 0)
(-1.59875e-11 0.013064 0)
(-4.73654e-11 0.0125906 0)
(-7.06696e-11 0.011669 0)
(-8.55867e-11 0.0103496 0)
(-9.60793e-11 0.00870893 0)
(-1.11568e-10 0.00685018 0)
(-1.46317e-10 0.00490364 0)
(-2.13465e-10 0.00302406 0)
(-2.85481e-10 0.00138428 0)
(-1.04203e-10 0.000188796 0)
(2.17479e-10 0.000188796 0)
(5.6807e-10 0.00138428 0)
(4.80241e-10 0.00302406 0)
(3.76273e-10 0.00490364 0)
(2.89441e-10 0.00685018 0)
(2.20097e-10 0.00870893 0)
(1.6432e-10 0.0103496 0)
(1.159e-10 0.011669 0)
(7.00691e-11 0.0125906 0)
(2.5832e-11 0.013064 0)
(-1.4594e-11 0.013064 0)
(-4.7551e-11 0.0125906 0)
(-7.02342e-11 0.011669 0)
(-8.30877e-11 0.0103496 0)
(-9.16699e-11 0.00870893 0)
(-1.07464e-10 0.00685018 0)
(-1.47184e-10 0.00490364 0)
(-2.28666e-10 0.00302406 0)
(-3.20524e-10 0.00138428 0)
(-1.35527e-10 0.000188795 0)
(2.59027e-10 0.000188796 0)
(7.42081e-10 0.00138428 0)
(6.34163e-10 0.00302406 0)
(4.8883e-10 0.00490364 0)
(3.67516e-10 0.00685018 0)
(2.72457e-10 0.00870893 0)
(1.9751e-10 0.0103496 0)
(1.35633e-10 0.011669 0)
(8.08966e-11 0.0125906 0)
(3.09039e-11 0.013064 0)
(-1.3225e-11 0.013064 0)
(-4.85876e-11 0.0125906 0)
(-7.27312e-11 0.011669 0)
(-8.57417e-11 0.0103496 0)
(-9.14875e-11 0.00870893 0)
(-9.74238e-11 0.00685018 0)
(-1.1375e-10 0.00490364 0)
(-1.5292e-10 0.00302406 0)
(-1.99999e-10 0.00138428 0)
(-7.7392e-11 0.000188795 0)
(1.92733e-10 0.000188795 0)
(6.08485e-10 0.00138428 0)
(5.77935e-10 0.00302406 0)
(4.85847e-10 0.00490364 0)
(3.88905e-10 0.00685018 0)
(3.00496e-10 0.00870893 0)
(2.22961e-10 0.0103496 0)
(1.54675e-10 0.011669 0)
(9.26701e-11 0.0125906 0)
(3.56258e-11 0.013064 0)
(-1.52715e-11 0.013064 0)
(-5.73586e-11 0.0125906 0)
(-8.80019e-11 0.011669 0)
(-1.05869e-10 0.0103496 0)
(-1.11044e-10 0.00870893 0)
(-1.03826e-10 0.00685018 0)
(-8.41852e-11 0.00490364 0)
(-5.29388e-11 0.00302406 0)
(-2.5565e-12 0.00138428 0)
(1.35887e-11 0.000188795 0)
(5.55152e-11 0.000188795 0)
(2.75959e-10 0.00138428 0)
(3.70744e-10 0.00302406 0)
(3.87325e-10 0.00490364 0)
(3.55438e-10 0.00685018 0)
(2.98831e-10 0.00870893 0)
(2.33278e-10 0.0103496 0)
(1.66533e-10 0.011669 0)
(1.00926e-10 0.0125906 0)
(3.76829e-11 0.013064 0)
(-2.11681e-11 0.013064 0)
(-7.31026e-11 0.0125906 0)
(-1.15395e-10 0.011669 0)
(-1.45157e-10 0.0103496 0)
(-1.58605e-10 0.00870893 0)
(-1.49238e-10 0.00685018 0)
(-1.06208e-10 0.00490364 0)
(-1.4105e-11 0.00302406 0)
(1.29573e-10 0.00138428 0)
(8.29618e-11 0.000188795 0)
(-3.94547e-11 0.000188795 0)
(-4.96047e-12 0.00138428 0)
(1.55808e-10 0.00302406 0)
(2.64051e-10 0.00490364 0)
(3.01545e-10 0.00685018 0)
(2.83977e-10 0.00870893 0)
(2.35325e-10 0.0103496 0)
(1.72946e-10 0.011669 0)
(1.05464e-10 0.0125906 0)
(3.67288e-11 0.013064 0)
(-3.06093e-11 0.013064 0)
(-9.45945e-11 0.0125906 0)
(-1.53187e-10 0.011669 0)
(-2.03029e-10 0.0103496 0)
(-2.39278e-10 0.00870893 0)
(-2.53046e-10 0.00685018 0)
(-2.27731e-10 0.00490364 0)
(-1.38535e-10 0.00302406 0)
(2.19936e-11 0.00138428 0)
(5.43322e-11 0.000188795 0)
(-8.73296e-11 0.000188795 0)
(-1.55254e-10 0.00138428 0)
(2.05045e-11 0.00302406 0)
(1.75918e-10 0.00490364 0)
(2.62726e-10 0.00685018 0)
(2.76693e-10 0.00870893 0)
(2.40969e-10 0.0103496 0)
(1.80323e-10 0.011669 0)
(1.0989e-10 0.0125906 0)
(3.54938e-11 0.013064 0)
(-4.07983e-11 0.013064 0)
(-1.17488e-10 0.0125906 0)
(-1.93634e-10 0.011669 0)
(-2.68388e-10 0.0103496 0)
(-3.40054e-10 0.00870893 0)
(-4.02741e-10 0.00685018 0)
(-4.40347e-10 0.00490364 0)
(-4.25974e-10 0.00302406 0)
(-3.33985e-10 0.00138428 0)
(-7.87934e-11 0.000188795 0)
(-6.47193e-11 0.000188795 0)
(-1.19215e-10 0.00138428 0)
(1.70869e-11 0.00302406 0)
(1.65264e-10 0.00490364 0)
(2.63228e-10 0.00685018 0)
(2.88414e-10 0.00870893 0)
(2.56548e-10 0.0103496 0)
(1.9394e-10 0.011669 0)
(1.19101e-10 0.0125906 0)
(3.94241e-11 0.013064 0)
(-4.4157e-11 0.013064 0)
(-1.31061e-10 0.0125906 0)
(-2.21712e-10 0.011669 0)
(-3.19747e-10 0.0103496 0)
(-4.28683e-10 0.00870893 0)
(-5.46801e-10 0.00685018 0)
(-6.61491e-10 0.00490364 0)
(-7.44339e-10 0.00302406 0)
(-7.43894e-10 0.00138428 0)
(-2.34527e-10 0.000188795 0)
(2.88924e-12 0.000188795 0)
(7.74284e-11 0.00138428 0)
(1.68966e-10 0.00302406 0)
(2.51446e-10 0.00490364 0)
(3.08567e-10 0.00685018 0)
(3.16371e-10 0.00870893 0)
(2.79321e-10 0.0103496 0)
(2.14871e-10 0.011669 0)
(1.36946e-10 0.0125906 0)
(5.33248e-11 0.013064 0)
(-3.39195e-11 0.013064 0)
(-1.25281e-10 0.0125906 0)
(-2.23562e-10 0.011669 0)
(-3.3495e-10 0.0103496 0)
(-4.66213e-10 0.00870893 0)
(-6.17525e-10 0.00685018 0)
(-7.77503e-10 0.00490364 0)
(-9.18684e-10 0.00302406 0)
(-9.77283e-10 0.00138428 0)
(-3.26106e-10 0.000188794 0)
(7.89733e-11 0.000188795 0)
(3.16409e-10 0.00138428 0)
(3.86431e-10 0.00302406 0)
(3.96229e-10 0.00490364 0)
(3.79072e-10 0.00685018 0)
(3.45164e-10 0.00870893 0)
(2.95177e-10 0.0103496 0)
(2.30978e-10 0.011669 0)
(1.55946e-10 0.0125906 0)
(7.46004e-11 0.013064 0)
(-9.90734e-12 0.013064 0)
(-9.78787e-11 0.0125906 0)
(-1.93133e-10 0.011669 0)
(-3.01516e-10 0.0103496 0)
(-4.27742e-10 0.00870893 0)
(-5.69366e-10 0.00685018 0)
(-7.11453e-10 0.00490364 0)
(-8.3281e-10 0.00302406 0)
(-8.85723e-10 0.00138428 0)
(-2.96713e-10 0.000188794 0)
(1.29396e-10 0.000188795 0)
(4.79496e-10 0.00138428 0)
(5.38511e-10 0.00302406 0)
(5.06673e-10 0.00490364 0)
(4.34289e-10 0.00685018 0)
(3.59237e-10 0.00870893 0)
(2.90948e-10 0.0103496 0)
(2.25316e-10 0.011669 0)
(1.57977e-10 0.0125906 0)
(8.80142e-11 0.013064 0)
(1.62324e-11 0.013064 0)
(-5.81102e-11 0.0125906 0)
(-1.37081e-10 0.011669 0)
(-2.22467e-10 0.0103496 0)
(-3.13917e-10 0.00870893 0)
(-4.04832e-10 0.00685018 0)
(-4.74741e-10 0.00490364 0)
(-5.08399e-10 0.00302406 0)
(-4.87526e-10 0.00138428 0)
(-1.45426e-10 0.000188793 0)
(1.53691e-10 0.000188794 0)
(5.41815e-10 0.00138428 0)
(5.68785e-10 0.00302406 0)
(5.15355e-10 0.00490364 0)
(4.27722e-10 0.00685018 0)
(3.35076e-10 0.00870893 0)
(2.57231e-10 0.0103496 0)
(1.93641e-10 0.011669 0)
(1.36932e-10 0.0125906 0)
(8.2958e-11 0.013064 0)
(3.09474e-11 0.013064 0)
(-1.92809e-11 0.0125906 0)
(-6.76753e-11 0.011669 0)
(-1.12475e-10 0.0103496 0)
(-1.49956e-10 0.00870893 0)
(-1.71027e-10 0.00685018 0)
(-1.51562e-10 0.00490364 0)
(-9.32474e-11 0.00302406 0)
(-3.86458e-11 0.00138428 0)
(-4.24629e-12 0.000188793 0)
(1.83744e-10 0.000188794 0)
(5.43017e-10 0.00138428 0)
(4.79261e-10 0.00302406 0)
(3.94168e-10 0.00490364 0)
(3.24054e-10 0.00685018 0)
(2.48951e-10 0.00870893 0)
(1.83938e-10 0.0103496 0)
(1.34836e-10 0.011669 0)
(9.61017e-11 0.0125906 0)
(6.36047e-11 0.013064 0)
(3.68374e-11 0.013064 0)
(1.69873e-11 0.0125906 0)
(5.91786e-12 0.011669 0)
(6.57697e-12 0.0103496 0)
(2.41496e-11 0.00870893 0)
(7.03691e-11 0.00685018 0)
(1.67869e-10 0.00490364 0)
(2.99412e-10 0.00302406 0)
(3.86386e-10 0.00138428 0)
(1.38828e-10 0.000188793 0)
(1.47665e-10 0.000188793 0)
(3.58053e-10 0.00138428 0)
(2.23788e-10 0.00302406 0)
(1.37384e-10 0.00490364 0)
(1.15089e-10 0.00685018 0)
(9.34136e-11 0.00870893 0)
(6.85325e-11 0.0103496 0)
(5.07936e-11 0.011669 0)
(4.07752e-11 0.0125906 0)
(3.67919e-11 0.013064 0)
(3.94134e-11 0.013064 0)
(5.09913e-11 0.0125906 0)
(7.35812e-11 0.011669 0)
(1.09336e-10 0.0103496 0)
(1.65336e-10 0.00870893 0)
(2.56706e-10 0.00685018 0)
(3.91924e-10 0.00490364 0)
(5.38596e-10 0.00302406 0)
(6.19544e-10 0.00138428 0)
(2.13168e-10 0.000188793 0)
(1.84255e-11 0.000188793 0)
(-1.08072e-11 0.00138428 0)
(-1.31117e-10 0.00302406 0)
(-1.80079e-10 0.00490364 0)
(-1.52678e-10 0.00685018 0)
(-1.07849e-10 0.00870893 0)
(-7.25706e-11 0.0103496 0)
(-4.523e-11 0.011669 0)
(-1.97507e-11 0.0125906 0)
(7.13959e-12 0.013064 0)
(3.83739e-11 0.013064 0)
(7.60533e-11 0.0125906 0)
(1.19948e-10 0.011669 0)
(1.70933e-10 0.0103496 0)
(2.40284e-10 0.00870893 0)
(3.44287e-10 0.00685018 0)
(4.68528e-10 0.00490364 0)
(5.69519e-10 0.00302406 0)
(6.13125e-10 0.00138428 0)
(2.07903e-10 0.000188794 0)
(-5.11964e-11 0.000188793 0)
(-2.82632e-10 0.00138428 0)
(-4.26966e-10 0.00302406 0)
(-4.60023e-10 0.00490364 0)
(-3.97655e-10 0.00685018 0)
(-2.98843e-10 0.00870893 0)
(-2.08629e-10 0.0103496 0)
(-1.36742e-10 0.011669 0)
(-7.59634e-11 0.0125906 0)
(-2.01634e-11 0.013064 0)
(3.31962e-11 0.013064 0)
(8.42217e-11 0.0125906 0)
(1.32887e-10 0.011669 0)
(1.82988e-10 0.0103496 0)
(2.46333e-10 0.00870893 0)
(3.31884e-10 0.00685018 0)
(4.10035e-10 0.00490364 0)
(4.32732e-10 0.00302406 0)
(4.1778e-10 0.00138428 0)
(1.44073e-10 0.000188794 0)
(-1.31351e-10 0.000188794 0)
(-5.47263e-10 0.00138428 0)
(-6.71762e-10 0.00302406 0)
(-6.671e-10 0.00490364 0)
(-5.72947e-10 0.00685018 0)
(-4.39879e-10 0.00870893 0)
(-3.13708e-10 0.0103496 0)
(-2.09083e-10 0.011669 0)
(-1.20206e-10 0.0125906 0)
(-4.25219e-11 0.013064 0)
(2.42432e-11 0.013064 0)
(7.93096e-11 0.0125906 0)
(1.24577e-10 0.011669 0)
(1.67341e-10 0.0103496 0)
(2.15802e-10 0.00870893 0)
(2.66791e-10 0.00685018 0)
(2.82335e-10 0.00490364 0)
(2.03368e-10 0.00302406 0)
(7.35851e-11 0.00138428 0)
(1.10285e-11 0.000188795 0)
(-2.72323e-10 0.000188794 0)
(-8.681e-10 0.00138428 0)
(-8.65603e-10 0.00302406 0)
(-7.82409e-10 0.00490364 0)
(-6.62442e-10 0.00685018 0)
(-5.15574e-10 0.00870893 0)
(-3.73061e-10 0.0103496 0)
(-2.51421e-10 0.011669 0)
(-1.47742e-10 0.0125906 0)
(-5.82381e-11 0.013064 0)
(1.72302e-11 0.013064 0)
(7.72611e-11 0.0125906 0)
(1.22919e-10 0.011669 0)
(1.6032e-10 0.0103496 0)
(1.94747e-10 0.00870893 0)
(2.16269e-10 0.00685018 0)
(1.83211e-10 0.00490364 0)
(1.68196e-11 0.00302406 0)
(-3.03253e-10 0.00138428 0)
(-1.98573e-10 0.000188794 0)
(-3.76796e-10 0.000188795 0)
(-1.05375e-09 0.00138428 0)
(-9.1564e-10 0.00302406 0)
(-7.69448e-10 0.00490364 0)
(-6.48946e-10 0.00685018 0)
(-5.15169e-10 0.00870893 0)
(-3.78732e-10 0.0103496 0)
(-2.57148e-10 0.011669 0)
(-1.51441e-10 0.0125906 0)
(-5.81698e-11 0.013064 0)
(2.25829e-11 0.013064 0)
(8.86875e-11 0.0125906 0)
(1.40244e-10 0.011669 0)
(1.8168e-10 0.0103496 0)
(2.16676e-10 0.00870893 0)
(2.33938e-10 0.00685018 0)
(2.04336e-10 0.00490364 0)
(1.06395e-10 0.00302406 0)
(-4.84095e-11 0.00138428 0)
(-5.00496e-11 0.000188794 0)
(-3.47489e-10 0.000188796 0)
(-8.95486e-10 0.00138428 0)
(-7.20346e-10 0.00302406 0)
(-5.91751e-10 0.00490364 0)
(-5.18723e-10 0.00685018 0)
(-4.33263e-10 0.00870893 0)
(-3.29918e-10 0.0103496 0)
(-2.26032e-10 0.011669 0)
(-1.29094e-10 0.0125906 0)
(-3.92729e-11 0.013064 0)
(4.22093e-11 0.013064 0)
(1.131e-10 0.0125906 0)
(1.73695e-10 0.011669 0)
(2.28325e-10 0.0103496 0)
(2.77306e-10 0.00870893 0)
(3.07399e-10 0.00685018 0)
(3.07841e-10 0.00490364 0)
(3.1787e-10 0.00302406 0)
(3.52767e-10 0.00138428 0)
(1.32379e-10 0.000188794 0)
(-7.14088e-11 0.000188796 0)
(-2.61765e-10 0.00138428 0)
(-2.74586e-10 0.00302406 0)
(-2.8151e-10 0.00490364 0)
(-3.03748e-10 0.00685018 0)
(-2.92807e-10 0.00870893 0)
(-2.42165e-10 0.0103496 0)
(-1.69554e-10 0.011669 0)
(-8.98735e-11 0.0125906 0)
(-9.10187e-12 0.013064 0)
(6.95132e-11 0.013064 0)
(1.43873e-10 0.0125906 0)
(2.15062e-10 0.011669 0)
(2.85646e-10 0.0103496 0)
(3.49437e-10 0.00870893 0)
(3.91666e-10 0.00685018 0)
(4.16192e-10 0.00490364 0)
(4.78677e-10 0.00302406 0)
(5.67671e-10 0.00138428 0)
(2.0116e-10 0.000188795 0)
(1.43346e-10 0.000188796 0)
(2.86575e-10 0.00138428 0)
(1.35476e-10 0.00302406 0)
(4.33458e-12 0.00490364 0)
(-9.83413e-11 0.00685018 0)
(-1.5002e-10 0.00870893 0)
(-1.48235e-10 0.0103496 0)
(-1.0826e-10 0.011669 0)
(-4.83322e-11 0.0125906 0)
(2.10448e-11 0.013064 0)
(9.47768e-11 0.013064 0)
(1.70921e-10 0.0125906 0)
(2.5026e-10 0.011669 0)
(3.30772e-10 0.0103496 0)
(4.00179e-10 0.00870893 0)
(4.44207e-10 0.00685018 0)
(4.7469e-10 0.00490364 0)
(5.34769e-10 0.00302406 0)
(5.91474e-10 0.00138428 0)
(1.92157e-10 0.000188795 0)
(2.42815e-10 0.000188796 0)
(4.95781e-10 0.00138428 0)
(2.83539e-10 0.00302406 0)
(1.21553e-10 0.00490364 0)
(8.55126e-12 0.00685018 0)
(-5.96926e-11 0.00870893 0)
(-8.05829e-11 0.0103496 0)
(-6.14683e-11 0.011669 0)
(-1.68945e-11 0.0125906 0)
(4.20953e-11 0.013064 0)
(1.09879e-10 0.013064 0)
(1.84428e-10 0.0125906 0)
(2.64543e-10 0.011669 0)
(3.4326e-10 0.0103496 0)
(4.05786e-10 0.00870893 0)
(4.39114e-10 0.00685018 0)
(4.56634e-10 0.00490364 0)
(4.86405e-10 0.00302406 0)
(4.80346e-10 0.00138428 0)
(1.36664e-10 0.000188795 0)
(2.00567e-11 0.000188795 0)
(7.6366e-11 0.00138428 0)
(7.03723e-11 0.00302406 0)
(3.46166e-11 0.00490364 0)
(-5.66e-12 0.00685018 0)
(-3.93971e-11 0.00870893 0)
(-5.16201e-11 0.0103496 0)
(-3.68025e-11 0.011669 0)
(-1.29686e-13 0.0125906 0)
(5.08928e-11 0.013064 0)
(1.11543e-10 0.013064 0)
(1.79317e-10 0.0125906 0)
(2.50239e-10 0.011669 0)
(3.1461e-10 0.0103496 0)
(3.58826e-10 0.00870893 0)
(3.72417e-10 0.00685018 0)
(3.66939e-10 0.00490364 0)
(3.67707e-10 0.00302406 0)
(3.17694e-10 0.00138428 0)
(7.28563e-11 0.000188796 0)
(-7.3232e-11 0.000188796 0)
(-2.11573e-10 0.00138428 0)
(-1.62243e-10 0.00302406 0)
(-1.05677e-10 0.00490364 0)
(-7.06116e-11 0.00685018 0)
(-5.67802e-11 0.00870893 0)
(-4.70161e-11 0.0103496 0)
(-2.72113e-11 0.011669 0)
(6.1431e-12 0.0125906 0)
(5.01224e-11 0.013064 0)
(1.01246e-10 0.013064 0)
(1.56032e-10 0.0125906 0)
(2.08194e-10 0.011669 0)
(2.48197e-10 0.0103496 0)
(2.66537e-10 0.00870893 0)
(2.60053e-10 0.00685018 0)
(2.36678e-10 0.00490364 0)
(2.18692e-10 0.00302406 0)
(1.57121e-10 0.00138428 0)
(2.09917e-11 0.000188796 0)
(-9.74266e-11 0.000188796 0)
(-3.22796e-10 0.00138428 0)
(-2.80966e-10 0.00302406 0)
(-1.89078e-10 0.00490364 0)
(-1.13604e-10 0.00685018 0)
(-6.91024e-11 0.00870893 0)
(-4.33698e-11 0.0103496 0)
(-1.99828e-11 0.011669 0)
(9.13266e-12 0.0125906 0)
(4.40411e-11 0.013064 0)
(8.17734e-11 0.013064 0)
(1.17538e-10 0.0125906 0)
(1.43985e-10 0.011669 0)
(1.53852e-10 0.0103496 0)
(1.44955e-10 0.00870893 0)
(1.27484e-10 0.00685018 0)
(1.05106e-10 0.00490364 0)
(8.22284e-11 0.00302406 0)
(3.63916e-11 0.00138428 0)
(-8.2873e-12 0.000188796 0)
(-8.88314e-11 0.000188796 0)
(-2.86334e-10 0.00138428 0)
(-2.51901e-10 0.00302406 0)
(-1.68509e-10 0.00490364 0)
(-9.32072e-11 0.00685018 0)
(-4.7887e-11 0.00870893 0)
(-2.40916e-11 0.0103496 0)
(-6.67831e-12 0.011669 0)
(1.26693e-11 0.0125906 0)
(3.42613e-11 0.013064 0)
(5.43891e-11 0.013064 0)
(6.69186e-11 0.0125906 0)
(6.45548e-11 0.011669 0)
(4.36085e-11 0.0103496 0)
(1.25384e-11 0.00870893 0)
(-4.6151e-12 0.00685018 0)
(-8.19242e-12 0.00490364 0)
(-1.85475e-11 0.00302406 0)
(-2.5955e-11 0.00138428 0)
(-1.16413e-11 0.000188796 0)
(-8.66297e-11 0.000188796 0)
(-1.51774e-10 0.00138428 0)
(-9.07328e-11 0.00302406 0)
(-4.53267e-11 0.00490364 0)
(-5.07833e-12 0.00685018 0)
(1.13004e-11 0.00870893 0)
(1.27834e-11 0.0103496 0)
(1.21032e-11 0.011669 0)
(1.48873e-11 0.0125906 0)
(1.92246e-11 0.013064 0)
(1.94944e-11 0.013064 0)
(8.10619e-12 0.0125906 0)
(-2.17015e-11 0.011669 0)
(-6.88656e-11 0.0103496 0)
(-1.13659e-10 0.00870893 0)
(-1.24934e-10 0.00685018 0)
(-1.04106e-10 0.00490364 0)
(-8.43723e-11 0.00302406 0)
(-4.43575e-11 0.00138428 0)
(-1.30689e-12 0.000188796 0)
(1.54993e-10 0.000188796 0)
(3.55888e-10 0.00138428 0)
(2.21618e-10 0.00302406 0)
(1.50874e-10 0.00490364 0)
(1.21358e-10 0.00685018 0)
(8.82405e-11 0.00870893 0)
(5.39543e-11 0.0103496 0)
(2.74577e-11 0.011669 0)
(1.01978e-11 0.0125906 0)
(-3.46514e-12 0.013064 0)
(-2.16835e-11 0.013064 0)
(-5.36479e-11 0.0125906 0)
(-1.05362e-10 0.011669 0)
(-1.70258e-10 0.0103496 0)
(-2.20663e-10 0.00870893 0)
(-2.26724e-10 0.00685018 0)
(-1.90082e-10 0.00490364 0)
(-1.38694e-10 0.00302406 0)
(-6.4417e-11 0.00138428 0)
(8.55087e-13 0.000188796 0)
(2.25169e-10 0.000188796 0)
(5.98991e-10 0.00138428 0)
(4.43477e-10 0.00302406 0)
(3.1036e-10 0.00490364 0)
(2.1828e-10 0.00685018 0)
(1.41311e-10 0.00870893 0)
(7.55893e-11 0.0103496 0)
(2.68429e-11 0.011669 0)
(-6.44825e-12 0.0125906 0)
(-3.35341e-11 0.013064 0)
(-6.51989e-11 0.013064 0)
(-1.11597e-10 0.0125906 0)
(-1.77687e-10 0.011669 0)
(-2.50613e-10 0.0103496 0)
(-2.99743e-10 0.00870893 0)
(-3.05905e-10 0.00685018 0)
(-2.76503e-10 0.00490364 0)
(-2.22022e-10 0.00302406 0)
(-1.39025e-10 0.00138428 0)
(-2.17157e-11 0.000188796 0)
(2.24696e-10 0.000188795 0)
(6.47385e-10 0.00138428 0)
(5.36068e-10 0.00302406 0)
(3.69814e-10 0.00490364 0)
(2.3417e-10 0.00685018 0)
(1.35688e-10 0.00870893 0)
(5.73246e-11 0.0103496 0)
(8.94328e-13 0.011669 0)
(-3.68387e-11 0.0125906 0)
(-6.73455e-11 0.013064 0)
(-1.0432e-10 0.013064 0)
(-1.59373e-10 0.0125906 0)
(-2.33593e-10 0.011669 0)
(-3.05439e-10 0.0103496 0)
(-3.46879e-10 0.00870893 0)
(-3.59491e-10 0.00685018 0)
(-3.63236e-10 0.00490364 0)
(-3.44666e-10 0.00302406 0)
(-2.76356e-10 0.00138428 0)
(-6.87223e-11 0.000188796 0)
(1.56615e-10 0.000188795 0)
(4.68025e-10 0.00138428 0)
(4.15139e-10 0.00302406 0)
(2.65304e-10 0.00490364 0)
(1.38426e-10 0.00685018 0)
(5.70158e-11 0.00870893 0)
(-6.28883e-12 0.0103496 0)
(-5.00235e-11 0.011669 0)
(-7.82538e-11 0.0125906 0)
(-1.01896e-10 0.013064 0)
(-1.36439e-10 0.013064 0)
(-1.95502e-10 0.0125906 0)
(-2.7033e-10 0.011669 0)
(-3.2757e-10 0.0103496 0)
(-3.53436e-10 0.00870893 0)
(-3.78223e-10 0.00685018 0)
(-4.24809e-10 0.00490364 0)
(-4.56204e-10 0.00302406 0)
(-4.1621e-10 0.00138428 0)
(-1.1937e-10 0.000188795 0)
(7.16389e-14 0.000188795 0)
(3.83044e-11 0.00138428 0)
(5.2458e-11 0.00302406 0)
(-1.24034e-11 0.00490364 0)
(-6.49715e-11 0.00685018 0)
(-8.4809e-11 0.00870893 0)
(-1.00636e-10 0.0103496 0)
(-1.11479e-10 0.011669 0)
(-1.19012e-10 0.0125906 0)
(-1.30996e-10 0.013064 0)
(-1.6077e-10 0.013064 0)
(-2.16728e-10 0.0125906 0)
(-2.73675e-10 0.011669 0)
(-2.99578e-10 0.0103496 0)
(-3.12031e-10 0.00870893 0)
(-3.54933e-10 0.00685018 0)
(-4.29953e-10 0.00490364 0)
(-4.89617e-10 0.00302406 0)
(-4.75236e-10 0.00138428 0)
(-1.43212e-10 0.000188795 0)
(-9.1462e-11 0.000188795 0)
(-3.44656e-10 0.00138428 0)
(-3.62254e-10 0.00302406 0)
(-3.62448e-10 0.00490364 0)
(-3.2186e-10 0.00685018 0)
(-2.55308e-10 0.00870893 0)
(-1.95339e-10 0.0103496 0)
(-1.57553e-10 0.011669 0)
(-1.39053e-10 0.0125906 0)
(-1.40724e-10 0.013064 0)
(-1.66773e-10 0.013064 0)
(-2.04684e-10 0.0125906 0)
(-2.22336e-10 0.011669 0)
(-2.17678e-10 0.0103496 0)
(-2.31525e-10 0.00870893 0)
(-2.92847e-10 0.00685018 0)
(-3.76316e-10 0.00490364 0)
(-4.32399e-10 0.00302406 0)
(-4.30996e-10 0.00138428 0)
(-1.30798e-10 0.000188795 0)
(-2.65418e-10 0.000188795 0)
(-8.51133e-10 0.00138428 0)
(-8.01012e-10 0.00302406 0)
(-6.91429e-10 0.00490364 0)
(-5.56174e-10 0.00685018 0)
(-4.05713e-10 0.00870893 0)
(-2.66216e-10 0.0103496 0)
(-1.73671e-10 0.011669 0)
(-1.2842e-10 0.0125906 0)
(-1.19726e-10 0.013064 0)
(-1.31904e-10 0.013064 0)
(-1.36433e-10 0.0125906 0)
(-1.19339e-10 0.011669 0)
(-1.04266e-10 0.0103496 0)
(-1.29473e-10 0.00870893 0)
(-2.0767e-10 0.00685018 0)
(-3.01279e-10 0.00490364 0)
(-3.62653e-10 0.00302406 0)
(-3.71825e-10 0.00138428 0)
(-1.11104e-10 0.000188794 0)
(-4.87775e-10 0.000188796 0)
(-1.36665e-09 0.00138428 0)
(-1.16335e-09 0.00302406 0)
(-9.12657e-10 0.00490364 0)
(-6.84451e-10 0.00685018 0)
(-4.74779e-10 0.00870893 0)
(-2.90859e-10 0.0103496 0)
(-1.59221e-10 0.011669 0)
(-8.63344e-11 0.0125906 0)
(-5.63758e-11 0.013064 0)
(-4.30336e-11 0.013064 0)
(-2.26611e-11 0.0125906 0)
(5.31742e-12 0.011669 0)
(1.68555e-11 0.0103496 0)
(-1.77305e-11 0.00870893 0)
(-1.07946e-10 0.00685018 0)
(-2.22165e-10 0.00490364 0)
(-3.25701e-10 0.00302406 0)
(-3.7134e-10 0.00138428 0)
(-1.16919e-10 0.000188794 0)
(-5.00495e-10 0.000188797 0)
(-1.42144e-09 0.00138428 0)
(-1.19813e-09 0.00302406 0)
(-8.85027e-10 0.00490364 0)
(-6.22836e-10 0.00685018 0)
(-4.05305e-10 0.00870893 0)
(-2.24765e-10 0.0103496 0)
(-9.01768e-11 0.011669 0)
(-5.81396e-12 0.0125906 0)
(4.29192e-11 0.013064 0)
(7.51815e-11 0.013064 0)
(1.06868e-10 0.0125906 0)
(1.36823e-10 0.011669 0)
(1.43427e-10 0.0103496 0)
(1.05554e-10 0.00870893 0)
(1.7401e-11 0.00685018 0)
(-1.01179e-10 0.00490364 0)
(-2.37347e-10 0.00302406 0)
(-3.51407e-10 0.00138428 0)
(-1.316e-10 0.000188794 0)
(-3.32226e-10 0.000188798 0)
(-1.00775e-09 0.00138428 0)
(-8.52955e-10 0.00302406 0)
(-5.76051e-10 0.00490364 0)
(-3.5628e-10 0.00685018 0)
(-1.82087e-10 0.00870893 0)
(-4.64149e-11 0.0103496 0)
(5.46486e-11 0.011669 0)
(1.22848e-10 0.0125906 0)
(1.69043e-10 0.013064 0)
(2.02481e-10 0.013064 0)
(2.32583e-10 0.0125906 0)
(2.58864e-10 0.011669 0)
(2.66155e-10 0.0103496 0)
(2.41813e-10 0.00870893 0)
(1.82042e-10 0.00685018 0)
(9.47302e-11 0.00490364 0)
(-3.7797e-11 0.00302406 0)
(-2.11838e-10 0.00138428 0)
(-1.1063e-10 0.000188794 0)
(-1.5041e-10 0.000188799 0)
(-3.82249e-10 0.00138428 0)
(-2.33945e-10 0.00302406 0)
(-4.63648e-11 0.00490364 0)
(8.64701e-11 0.00685018 0)
(1.85166e-10 0.00870893 0)
(2.48029e-10 0.0103496 0)
(2.84785e-10 0.011669 0)
(3.03414e-10 0.0125906 0)
(3.11216e-10 0.013064 0)
(3.21783e-10 0.013064 0)
(3.40843e-10 0.0125906 0)
(3.61054e-10 0.011669 0)
(3.77396e-10 0.0103496 0)
(3.86124e-10 0.00870893 0)
(3.84979e-10 0.00685018 0)
(3.72786e-10 0.00490364 0)
(3.04424e-10 0.00302406 0)
(1.36781e-10 0.00138428 0)
(-6.79944e-12 0.000188793 0)
(5.48299e-11 0.000188799 0)
(4.41364e-10 0.00138428 0)
(6.23573e-10 0.00302406 0)
(6.89129e-10 0.00490364 0)
(6.83896e-10 0.00685018 0)
(6.57027e-10 0.00870893 0)
(6.14544e-10 0.0103496 0)
(5.62434e-10 0.011669 0)
(5.0927e-10 0.0125906 0)
(4.63645e-10 0.013064 0)
(4.3712e-10 0.013064 0)
(4.32818e-10 0.0125906 0)
(4.45333e-10 0.011669 0)
(4.74987e-10 0.0103496 0)
(5.22877e-10 0.00870893 0)
(5.95394e-10 0.00685018 0)
(6.86283e-10 0.00490364 0)
(7.38599e-10 0.00302406 0)
(6.72998e-10 0.00138428 0)
(1.86214e-10 0.000188794 0)
(6.27206e-10 0.000188798 0)
(1.83136e-09 0.00138428 0)
(1.69835e-09 0.00302406 0)
(1.51845e-09 0.00490364 0)
(1.3337e-09 0.00685018 0)
(1.14855e-09 0.00870893 0)
(9.8069e-10 0.0103496 0)
(8.30741e-10 0.011669 0)
(7.03911e-10 0.0125906 0)
(6.05485e-10 0.013064 0)
(5.39355e-10 0.013064 0)
(5.05774e-10 0.0125906 0)
(5.04027e-10 0.011669 0)
(5.38666e-10 0.0103496 0)
(6.15376e-10 0.00870893 0)
(7.48089e-10 0.00685018 0)
(9.27506e-10 0.00490364 0)
(1.10471e-09 0.00302406 0)
(1.20177e-09 0.00138428 0)
(4.02549e-10 0.000188794 0)
(9.59655e-10 0.000188796 0)
(2.70192e-09 0.00138428 0)
(2.43997e-09 0.00302406 0)
(2.12667e-09 0.00490364 0)
(1.82154e-09 0.00685018 0)
(1.52317e-09 0.00870893 0)
(1.26013e-09 0.0103496 0)
(1.03554e-09 0.011669 0)
(8.50593e-10 0.0125906 0)
(7.06941e-10 0.013064 0)
(6.04168e-10 0.013064 0)
(5.40921e-10 0.0125906 0)
(5.18649e-10 0.011669 0)
(5.42606e-10 0.0103496 0)
(6.21584e-10 0.00870893 0)
(7.69336e-10 0.00685018 0)
(9.75392e-10 0.00490364 0)
(1.21424e-09 0.00302406 0)
(1.42835e-09 0.00138428 0)
(5.1261e-10 0.000188795 0)
(8.234e-10 0.000188794 0)
(2.54621e-09 0.00138428 0)
(2.50867e-09 0.00302406 0)
(2.28298e-09 0.00490364 0)
(1.9929e-09 0.00685018 0)
(1.68147e-09 0.00870893 0)
(1.38908e-09 0.0103496 0)
(1.13216e-09 0.011669 0)
(9.16849e-10 0.0125906 0)
(7.45137e-10 0.013064 0)
(6.15483e-10 0.013064 0)
(5.25926e-10 0.0125906 0)
(4.76861e-10 0.011669 0)
(4.70199e-10 0.0103496 0)
(5.14523e-10 0.00870893 0)
(6.15034e-10 0.00685018 0)
(7.60588e-10 0.00490364 0)
(9.52357e-10 0.00302406 0)
(1.14503e-09 0.00138428 0)
(4.16023e-10 0.000188797 0)
(4.84772e-10 0.000188792 0)
(1.80661e-09 0.00138428 0)
(2.06642e-09 0.00302406 0)
(2.03955e-09 0.00490364 0)
(1.86412e-09 0.00685018 0)
(1.62028e-09 0.00870893 0)
(1.35788e-09 0.0103496 0)
(1.10984e-09 0.011669 0)
(8.93761e-10 0.0125906 0)
(7.14385e-10 0.013064 0)
(5.7052e-10 0.013064 0)
(4.59538e-10 0.0125906 0)
(3.78094e-10 0.011669 0)
(3.22891e-10 0.0103496 0)
(2.98894e-10 0.00870893 0)
(3.00324e-10 0.00685018 0)
(3.13664e-10 0.00490364 0)
(3.54791e-10 0.00302406 0)
(3.97224e-10 0.00138428 0)
(1.32842e-10 0.000188797 0)
(2.55072e-10 0.000188791 0)
(1.14769e-09 0.00138428 0)
(1.5113e-09 0.00302406 0)
(1.62202e-09 0.00490364 0)
(1.56464e-09 0.00685018 0)
(1.40701e-09 0.00870893 0)
(1.2027e-09 0.0103496 0)
(9.91993e-10 0.011669 0)
(7.97208e-10 0.0125906 0)
(6.26393e-10 0.013064 0)
(4.7907e-10 0.013064 0)
(3.51231e-10 0.0125906 0)
(2.3529e-10 0.011669 0)
(1.23853e-10 0.0103496 0)
(1.73109e-11 0.00870893 0)
(-9.57952e-11 0.00685018 0)
(-2.31612e-10 0.00490364 0)
(-3.73387e-10 0.00302406 0)
(-4.91126e-10 0.00138428 0)
(-1.87765e-10 0.000188797 0)
(1.47965e-10 0.000188791 0)
(7.34253e-10 0.00138428 0)
(1.04001e-09 0.00302406 0)
(1.1867e-09 0.00490364 0)
(1.20419e-09 0.00685018 0)
(1.12285e-09 0.00870893 0)
(9.80217e-10 0.0103496 0)
(8.16211e-10 0.011669 0)
(6.53528e-10 0.0125906 0)
(5.00791e-10 0.013064 0)
(3.57585e-10 0.013064 0)
(2.18525e-10 0.0125906 0)
(7.37892e-11 0.011669 0)
(-8.53278e-11 0.0103496 0)
(-2.60795e-10 0.00870893 0)
(-4.6137e-10 0.00685018 0)
(-7.00813e-10 0.00490364 0)
(-9.68857e-10 0.00302406 0)
(-1.18502e-09 0.00138428 0)
(-4.33231e-10 0.000188796 0)
(1.29219e-10 0.00018879 0)
(5.41004e-10 0.00138428 0)
(7.04333e-10 0.00302406 0)
(8.02357e-10 0.00490364 0)
(8.38885e-10 0.00685018 0)
(8.11841e-10 0.00870893 0)
(7.26378e-10 0.0103496 0)
(6.10112e-10 0.011669 0)
(4.84304e-10 0.0125906 0)
(3.55833e-10 0.013064 0)
(2.23969e-10 0.013064 0)
(8.34435e-11 0.0125906 0)
(-7.47128e-11 0.011669 0)
(-2.56974e-10 0.0103496 0)
(-4.63155e-10 0.00870893 0)
(-6.93701e-10 0.00685018 0)
(-9.50716e-10 0.00490364 0)
(-1.21537e-09 0.00302406 0)
(-1.36544e-09 0.00138428 0)
(-4.60223e-10 0.000188795 0)
(1.17481e-10 0.00018879 0)
(3.88081e-10 0.00138428 0)
(4.12842e-10 0.00302406 0)
(4.44626e-10 0.00490364 0)
(4.72118e-10 0.00685018 0)
(4.7902e-10 0.00870893 0)
(4.47731e-10 0.0103496 0)
(3.84824e-10 0.011669 0)
(3.02272e-10 0.0125906 0)
(2.05222e-10 0.013064 0)
(9.43641e-11 0.013064 0)
(-3.31864e-11 0.0125906 0)
(-1.82616e-10 0.011669 0)
(-3.54974e-10 0.0103496 0)
(-5.4484e-10 0.00870893 0)
(-7.44655e-10 0.00685018 0)
(-9.41779e-10 0.00490364 0)
(-1.09785e-09 0.00302406 0)
(-1.09515e-09 0.00138428 0)
(-3.23149e-10 0.000188794 0)
(8.31692e-11 0.00018879 0)
(1.49848e-10 0.00138428 0)
(5.47128e-11 0.00302406 0)
(4.47797e-11 0.00490364 0)
(7.87234e-11 0.00685018 0)
(1.22877e-10 0.00870893 0)
(1.49557e-10 0.0103496 0)
(1.46765e-10 0.011669 0)
(1.1515e-10 0.0125906 0)
(5.84084e-11 0.013064 0)
(-1.97973e-11 0.013064 0)
(-1.18014e-10 0.0125906 0)
(-2.35379e-10 0.011669 0)
(-3.66576e-10 0.0103496 0)
(-5.02088e-10 0.00870893 0)
(-6.30207e-10 0.00685018 0)
(-7.34156e-10 0.00490364 0)
(-7.73334e-10 0.00302406 0)
(-6.62675e-10 0.00138428 0)
(-1.57585e-10 0.000188794 0)
(-7.50163e-11 0.00018879 0)
(-3.5838e-10 0.00138428 0)
(-4.52869e-10 0.00302406 0)
(-4.23984e-10 0.00490364 0)
(-3.43997e-10 0.00685018 0)
(-2.49304e-10 0.00870893 0)
(-1.59012e-10 0.0103496 0)
(-9.65153e-11 0.011669 0)
(-7.08023e-11 0.0125906 0)
(-7.90668e-11 0.013064 0)
(-1.1401e-10 0.013064 0)
(-1.68485e-10 0.0125906 0)
(-2.34704e-10 0.011669 0)
(-3.02124e-10 0.0103496 0)
(-3.60269e-10 0.00870893 0)
(-3.98055e-10 0.00685018 0)
(-4.07635e-10 0.00490364 0)
(-3.72826e-10 0.00302406 0)
(-2.6251e-10 0.00138428 0)
(-4.17066e-11 0.000188794 0)
(-3.22112e-10 0.00018879 0)
(-1.0518e-09 0.00138428 0)
(-1.04702e-09 0.00302406 0)
(-9.20427e-10 0.00490364 0)
(-7.65056e-10 0.00685018 0)
(-6.08607e-10 0.00870893 0)
(-4.56416e-10 0.0103496 0)
(-3.31431e-10 0.011669 0)
(-2.48064e-10 0.0125906 0)
(-2.04424e-10 0.013064 0)
(-1.89904e-10 0.013064 0)
(-1.91476e-10 0.0125906 0)
(-1.95034e-10 0.011669 0)
(-1.86672e-10 0.0103496 0)
(-1.57165e-10 0.00870893 0)
(-1.00484e-10 0.00685018 0)
(-2.38183e-11 0.00490364 0)
(4.58114e-11 0.00302406 0)
(8.08288e-11 0.00138428 0)
(3.11103e-11 0.000188794 0)
(-5.60272e-10 0.000188791 0)
(-1.68646e-09 0.00138428 0)
(-1.56815e-09 0.00302406 0)
(-1.35356e-09 0.00490364 0)
(-1.12622e-09 0.00685018 0)
(-9.11062e-10 0.00870893 0)
(-7.10623e-10 0.0103496 0)
(-5.37733e-10 0.011669 0)
(-4.06301e-10 0.0125906 0)
(-3.15234e-10 0.013064 0)
(-2.51908e-10 0.013064 0)
(-1.98785e-10 0.0125906 0)
(-1.37151e-10 0.011669 0)
(-5.1041e-11 0.0103496 0)
(6.73161e-11 0.00870893 0)
(2.17234e-10 0.00685018 0)
(3.80778e-10 0.00490364 0)
(4.93948e-10 0.00302406 0)
(4.73327e-10 0.00138428 0)
(1.25662e-10 0.000188794 0)
(-6.75251e-10 0.000188793 0)
(-2.00082e-09 0.00138428 0)
(-1.84849e-09 0.00302406 0)
(-1.61386e-09 0.00490364 0)
(-1.35829e-09 0.00685018 0)
(-1.11231e-09 0.00870893 0)
(-8.90478e-10 0.0103496 0)
(-6.94639e-10 0.011669 0)
(-5.3419e-10 0.0125906 0)
(-4.08518e-10 0.013064 0)
(-3.04788e-10 0.013064 0)
(-2.03413e-10 0.0125906 0)
(-8.34374e-11 0.011669 0)
(7.21396e-11 0.0103496 0)
(2.71235e-10 0.00870893 0)
(5.09373e-10 0.00685018 0)
(7.65741e-10 0.00490364 0)
(9.68132e-10 0.00302406 0)
(9.88221e-10 0.00138428 0)
(2.91385e-10 0.000188794 0)
(-6.10442e-10 0.000188794 0)
(-1.86223e-09 0.00138428 0)
(-1.78991e-09 0.00302406 0)
(-1.62527e-09 0.00490364 0)