/*--------------------------------*- C++ -*----------------------------------*\
| =========                 |                                                 |
| \\      /  F ield         | OpenFOAM: The Open Source CFD Toolbox           |
|  \\    /   O peration     | Version:  5.x                                   |
|   \\  /    A nd           | Web:      www.OpenFOAM.org                      |
|    \\/     M anipulation  |                                                 |
\*---------------------------------------------------------------------------*/
FoamFile
{
    version     2.0;
    format      ascii;
    class       surfaceScalarField;
    location    "0.2";
    object      alphaPhi10;
}
// * * * * * * * * * * * * * * * * * * * * * * * * * * * * * * * * * * * * * //

dimensions      [0 3 -1 0 0 0 0];

internalField   nonuniform List<scalar> 
4432
(
2.11593e-06
-2.11593e-06
7.80844e-06
-5.69251e-06
1.4162e-05
-6.35361e-06
2.00626e-05
-5.90057e-06
2.54784e-05
-5.41582e-06
3.06648e-05
-5.18633e-06
3.58378e-05
-5.17307e-06
4.11049e-05
-5.26711e-06
4.64773e-05
-5.37234e-06
5.19e-05
-5.42277e-06
5.72714e-05
-5.37136e-06
6.24435e-05
-5.17212e-06
6.72111e-05
-4.76756e-06
7.12909e-05
-4.07978e-06
7.42583e-05
-2.96744e-06
7.52865e-05
-1.02818e-06
7.28215e-05
2.46501e-06
6.45933e-05
8.22819e-06
4.86651e-05
1.59281e-05
2.46893e-05
2.39758e-05
-2.57783e-06
2.72671e-05
-1.35494e-05
1.50623e-05
-1.40891e-05
2.16497e-06
-4.28089e-06
7.85899e-06
-1.13865e-05
1.42123e-05
-1.27069e-05
2.01197e-05
-1.18079e-05
2.55417e-05
-1.08379e-05
3.0741e-05
-1.03856e-05
3.59371e-05
-1.03692e-05
4.12339e-05
-1.05638e-05
4.66401e-05
-1.07786e-05
5.21029e-05
-1.08856e-05
5.75246e-05
-1.07931e-05
6.27619e-05
-1.04093e-05
6.7614e-05
-9.61972e-06
7.18022e-05
-8.26792e-06
7.49688e-05
-6.13406e-06
7.69043e-05
-2.96368e-06
7.76508e-05
1.71855e-06
7.7011e-05
8.86799e-06
7.27514e-05
2.01877e-05
6.05463e-05
3.61804e-05
3.81178e-05
4.96954e-05
1.35483e-05
4.03245e-05
-4.54953e-06
2.22807e-06
-6.50896e-06
7.91214e-06
-1.70706e-05
1.4216e-05
-1.90108e-05
2.00718e-05
-1.76638e-05
2.54589e-05
-1.6225e-05
3.06466e-05
-1.55733e-05
3.5852e-05
-1.55746e-05
4.11718e-05
-1.58836e-05
4.66112e-05
-1.6218e-05
5.21197e-05
-1.63942e-05
5.7606e-05
-1.62794e-05
6.29349e-05
-1.57382e-05
6.79166e-05
-1.46014e-05
7.22915e-05
-1.26429e-05
7.57225e-05
-9.56502e-06
7.77516e-05
-4.99286e-06
7.79385e-05
1.5317e-06
7.62458e-05
1.05607e-05
7.33901e-05
2.30434e-05
6.91749e-05
4.03956e-05
5.8074e-05
6.07963e-05
3.34637e-05
6.49351e-05
2.81479e-05
2.32064e-06
-8.8296e-06
8.00304e-06
-2.2753e-05
1.42352e-05
-2.5243e-05
2.00112e-05
-2.34397e-05
2.53492e-05
-2.1563e-05
3.05266e-05
-2.07508e-05
3.57519e-05
-2.07999e-05
4.11106e-05
-2.12423e-05
4.66039e-05
-2.17113e-05
5.21853e-05
-2.19756e-05
5.7772e-05
-2.18661e-05
6.32417e-05
-2.12079e-05
6.8421e-05
-1.97806e-05
7.30663e-05
-1.72883e-05
7.68457e-05
-1.33443e-05
7.93371e-05
-7.48425e-06
8.00406e-05
8.2813e-07
7.84865e-05
1.21149e-05
7.46695e-05
2.68604e-05
6.99755e-05
4.50896e-05
6.25227e-05
6.82491e-05
4.20204e-05
8.54374e-05
6.6997e-05
2.44356e-06
-1.12732e-05
8.12555e-06
-2.8435e-05
1.42608e-05
-3.13782e-05
1.99302e-05
-2.91092e-05
2.5207e-05
-2.68397e-05
3.03756e-05
-2.59194e-05
3.56289e-05
-2.60533e-05
4.10379e-05
-2.66512e-05
4.65997e-05
-2.72732e-05
5.22738e-05
-2.76496e-05
5.79891e-05
-2.75815e-05
6.36408e-05
-2.68597e-05
6.90766e-05
-2.52163e-05
7.40709e-05
-2.22826e-05
7.83028e-05
-1.75762e-05
8.13589e-05
-1.05404e-05
8.27781e-05
-5.91059e-07
8.20501e-05
1.28429e-05
7.85618e-05
3.03487e-05
7.22363e-05
5.14151e-05
6.34894e-05
7.6996e-05
4.4312e-05
0.000104615
8.891e-05
2.59737e-06
-1.38705e-05
8.27119e-06
-3.41088e-05
1.42804e-05
-3.73874e-05
1.98195e-05
-3.46483e-05
2.5026e-05
-3.20462e-05
3.01868e-05
-3.10802e-05
3.54726e-05
-3.1339e-05
4.09369e-05
-3.21155e-05
4.65743e-05
-3.29106e-05
5.23525e-05
-3.34277e-05
5.82166e-05
-3.34456e-05
6.4084e-05
-3.27272e-05
6.98264e-05
-3.09586e-05
7.52372e-05
-2.76934e-05
8.00101e-05
-2.23492e-05
8.37433e-05
-1.42735e-05
8.59831e-05
-2.83083e-06
8.61945e-05
1.26315e-05
8.36929e-05
3.28503e-05
7.71998e-05
5.79081e-05
6.63513e-05
8.78445e-05
4.61584e-05
0.000124808
0.000139143
2.77683e-06
-1.66474e-05
8.42603e-06
-3.9758e-05
1.428e-05
-4.32414e-05
1.96707e-05
-4.0039e-05
2.48014e-05
-3.71769e-05
2.99543e-05
-3.62331e-05
3.52725e-05
-3.66572e-05
4.07915e-05
-3.76345e-05
4.65052e-05
-3.86243e-05
5.23926e-05
-3.93151e-05
5.84192e-05
-3.94722e-05
6.45287e-05
-3.88366e-05
7.06167e-05
-3.70466e-05
7.64974e-05
-3.35742e-05
8.18881e-05
-2.77398e-05
8.6417e-05
-1.88024e-05
8.96318e-05
-6.04565e-06
9.09326e-05
1.13307e-05
8.96227e-05
3.41601e-05
8.41922e-05
6.33386e-05
7.256e-05
9.94767e-05
5.26847e-05
0.000144683
0.00021159
2.96979e-06
-1.96171e-05
8.56899e-06
-4.53572e-05
1.4248e-05
-4.89203e-05
1.94827e-05
-4.52738e-05
2.45353e-05
-4.22295e-05
2.96785e-05
-4.13763e-05
3.50248e-05
-4.20036e-05
4.05932e-05
-4.32028e-05
4.63794e-05
-4.44106e-05
5.23772e-05
-4.53129e-05
5.85768e-05
-4.56718e-05
6.49484e-05
-4.52082e-05
7.1412e-05
-4.35103e-05
7.78096e-05
-3.99718e-05
8.38893e-05
-3.38195e-05
8.93135e-05
-2.42266e-05
9.36587e-05
-1.03909e-05
9.62665e-05
8.72291e-06
9.64603e-05
3.39663e-05
9.28156e-05
6.69831e-05
8.18832e-05
0.000110409
6.03206e-05
0.000166246
0.000272129
3.05444e-26
-7.68969e-26
6.63104e-26
-8.84687e-26
1.00571e-26
-3.76724e-27
5.27857e-28
-4.89555e-27
6.23325e-30
-1.82196e-28
1.76676e-31
-3.58387e-30
1.22436e-32
-1.09791e-31
7.33789e-34
-4.12603e-33
2.67992e-35
-1.15916e-34
7.57849e-37
-1.77304e-36
1.82501e-38
4.04758e-39
3.65136e-40
4.29177e-40
5.71672e-42
1.4898e-41
6.86827e-44
3.20817e-43
5.94006e-46
5.31593e-45
3.43369e-48
5.93312e-47
1.10012e-50
4.59292e-49
1.26654e-53
2.06022e-51
3.70139e-54
-1.72106e-23
1.36457e-23
-6.26428e-24
-2.03414e-23
-1.50886e-25
-5.44873e-24
5.95075e-26
-1.55934e-24
1.1054e-27
-5.57764e-26
3.81183e-29
-1.26864e-27
1.96421e-30
-3.01717e-29
9.29232e-32
-8.30216e-31
3.24225e-33
-1.87458e-32
8.93828e-35
-2.47845e-34
2.07025e-36
1.53506e-36
3.96344e-38
1.74899e-37
5.9595e-40
5.83154e-39
6.78443e-42
1.23067e-40
5.50334e-44
1.87846e-42
2.85711e-46
1.97121e-44
7.5304e-49
1.34203e-46
6.07521e-52
4.64773e-49
5.57762e-52
-1.2058e-21
1.27828e-21
-4.76314e-22
-3.22976e-21
-9.55541e-24
-3.36088e-21
5.11803e-24
-5.83534e-22
9.72336e-26
-1.27312e-23
3.44976e-27
-2.74238e-25
1.27597e-28
-5.00214e-27
4.27263e-30
-8.42424e-29
1.24147e-31
-1.34158e-30
3.06239e-33
-1.45967e-32
6.45084e-35
7.91024e-35
1.13193e-36
8.40063e-36
1.56552e-38
2.53722e-37
1.63288e-40
4.91862e-39
1.19309e-42
6.7921e-41
5.3871e-45
6.3523e-43
1.2316e-47
3.76324e-45
1.38873e-50
1.15065e-47
1.44948e-50
-1.06049e-19
9.03692e-20
-8.51575e-20
-8.32441e-19
-3.59112e-21
-1.65142e-18
2.95202e-22
-1.39527e-19
5.0245e-24
-1.19288e-21
2.27982e-25
-2.89512e-23
7.61637e-27
-7.8459e-25
1.70579e-28
-1.04748e-26
3.83691e-30
-1.00007e-28
8.12733e-32
-7.28597e-31
1.51464e-33
2.79576e-33
2.38709e-35
2.6892e-34
2.99451e-37
7.16092e-36
2.83462e-39
1.25401e-37
1.90755e-41
1.56179e-39
8.08903e-44
1.35919e-41
1.75169e-46
7.52142e-44
2.7586e-49
2.19048e-46
2.89682e-49
-1.0581e-17
9.34997e-18
-7.42294e-18
-1.06217e-16
-2.3598e-19
-2.18378e-17
5.12968e-21
-2.47199e-18
1.09566e-22
-2.06218e-20
7.18917e-24
-5.24448e-22
3.26252e-25
-2.29062e-23
6.26289e-27
-5.14955e-25
1.05663e-28
-6.2383e-27
1.75613e-30
-3.03029e-29
2.84406e-32
8.58909e-32
3.97598e-34
6.39111e-33
4.56853e-36
1.48166e-34
4.03746e-38
2.38143e-36
2.55334e-40
2.74438e-38
1.03869e-42
2.26241e-40
2.16082e-45
1.194e-42
4.34011e-48
3.23587e-45
4.6288e-48
-1.73362e-16
1.77099e-16
-5.65561e-17
-1.77805e-16
-2.05258e-18
-4.71904e-17
8.60498e-21
-3.35999e-18
9.43174e-22
-2.49266e-19
5.81755e-23
-4.80567e-21
3.1959e-24
-1.09671e-22
9.32572e-26
-2.50906e-24
1.83432e-27
-4.69723e-26
2.60657e-29
-4.88999e-28
3.90115e-31
1.59595e-30
5.12446e-33
1.01029e-31
5.50797e-35
2.2123e-33
4.63239e-37
3.32284e-35
2.87423e-39
3.72571e-37
1.14308e-41
2.98622e-39
3.52987e-44
1.51804e-41
5.56022e-47
4.05035e-44
6.02312e-47
-3.77027e-16
8.36173e-16
-1.86556e-16
3.36627e-15
-1.08741e-17
2.34152e-15
-8.19033e-20
1.90041e-16
1.3015e-20
-9.56123e-19
2.19889e-22
-2.21629e-20
7.59948e-24
-3.77287e-22
2.7719e-25
-4.81619e-24
8.49467e-27
-6.02052e-26
1.93762e-28
-6.90638e-28
3.18734e-30
1.33782e-29
4.33537e-32
8.64676e-31
4.7078e-34
2.00955e-32
4.01217e-36
3.15171e-34
2.50753e-38
3.58707e-36
9.82179e-41
2.87661e-38
3.82027e-43
1.45364e-40
5.4893e-46
4.0168e-43
6.09145e-46
-1.30468e-14
1.3883e-14
-9.91915e-15
4.95613e-16
-9.00098e-16
-1.04074e-14
-6.35621e-18
-1.16113e-15
2.91926e-19
-3.87081e-18
2.8371e-20
1.7247e-18
1.67492e-21
2.24602e-20
3.45181e-23
-5.38112e-23
1.47944e-26
-4.02467e-24
5.6032e-28
5.00416e-26
3.77437e-29
7.77379e-29
2.74372e-31
5.45337e-30
3.28486e-33
1.45111e-31
2.83463e-35
2.44502e-33
1.69241e-37
2.82004e-35
6.19405e-40
2.18405e-37
2.80382e-42
1.03473e-39
4.14075e-45
3.06423e-42
4.74978e-45
6.83779e-06
-2.64549e-05
1.8684e-05
-5.72034e-05
3.0102e-05
-6.03383e-05
4.06579e-05
-5.58297e-05
5.11479e-05
-5.27195e-05
6.2045e-05
-5.22734e-05
7.34743e-05
-5.34329e-05
8.54421e-05
-5.51706e-05
9.79657e-05
-5.69341e-05
0.000111098
-5.84457e-05
0.000124916
-5.94889e-05
0.000139451
-5.97436e-05
0.000154659
-5.87183e-05
0.000170353
-5.56655e-05
0.000186074
-4.95409e-05
0.000201092
-3.9245e-05
0.000214555
-2.3853e-05
0.000224975
-1.69707e-06
0.000231269
2.76716e-05
0.000230591
6.76613e-05
0.000221102
0.000119898
0.000211584
0.000175764
0.000258853
0.000224856
7.61884e-06
-3.40738e-05
1.90641e-05
-6.86487e-05
2.95987e-05
-7.08729e-05
3.94726e-05
-6.57035e-05
4.96376e-05
-6.28845e-05
6.04424e-05
-6.30783e-05
7.18886e-05
-6.48791e-05
8.3956e-05
-6.72379e-05
9.67196e-05
-6.96977e-05
0.000110349
-7.20751e-05
0.000125059
-7.41992e-05
0.000141053
-7.57373e-05
0.000158581
-7.62466e-05
0.000177732
-7.48164e-05
0.000198083
-6.98916e-05
0.000218835
-5.99973e-05
0.000239068
-4.40857e-05
0.000257311
-1.99404e-05
0.000273075
1.19084e-05
0.000283696
5.70396e-05
0.000292288
0.000111305
0.000302178
0.000165873
0.000234521
0.000326496
8.34373e-06
-4.24175e-05
1.92074e-05
-7.95124e-05
2.87494e-05
-8.04149e-05
3.79538e-05
-7.49079e-05
4.77912e-05
-7.27218e-05
5.84127e-05
-7.36998e-05
6.97187e-05
-7.6185e-05
8.1698e-05
-7.92172e-05
9.4517e-05
-8.25168e-05
0.000108467
-8.60251e-05
0.000123885
-8.9617e-05
0.00014117
-9.30229e-05
0.000160997
-9.60737e-05
0.0001838
-9.76184e-05
0.000209151
-9.52426e-05
0.000236102
-8.69485e-05
0.000264261
-7.22478e-05
0.000291507
-4.71925e-05
0.00031854
-1.67076e-05
0.000336365
3.92149e-05
0.000341853
0.000105817
0.000344416
0.00016331
0.00021644
0.000362484
8.93127e-06
-5.13488e-05
1.90325e-05
-8.96135e-05
2.75639e-05
-8.89464e-05
3.61487e-05
-8.34927e-05
4.56273e-05
-8.22004e-05
5.59322e-05
-8.40047e-05
6.69078e-05
-8.71607e-05
7.85847e-05
-9.08941e-05
9.12187e-05
-9.51508e-05
0.000105126
-9.9932e-05
0.000120661
-0.000105152
0.000138324
-0.000110686
0.000159467
-0.000117216
0.000185007
-0.000123156
0.000213739
-0.00012397
0.000243277
-0.000116485
0.00027211
-0.000101447
0.000258783
-3.88184e-05
0.000218083
-8.24669e-06
0.000165837
3.8603e-06
0.000188162
8.68999e-06
0.000256005
2.45101e-05
9.60908e-05
0.000311699
9.3415e-06
-6.06903e-05
1.85223e-05
-9.87944e-05
2.60807e-05
-9.65048e-05
3.40958e-05
-9.15078e-05
4.31498e-05
-9.12543e-05
5.29789e-05
-9.38338e-05
6.34078e-05
-9.75896e-05
7.45008e-05
-0.000101987
8.64769e-05
-0.000107127
9.94648e-05
-0.00011292
0.000113682
-0.000119368
0.000129746
-0.000126747
0.000150571
-0.000138022
0.000176671
-0.000149203
0.000197406
-0.000144622
0.000159767
-6.68542e-05
7.49683e-05
-1.74139e-05
1.0561e-05
-3.46603e-06
2.65991e-06
-3.05071e-07
3.78867e-06
-4.73766e-09
8.89341e-06
6.50624e-07
2.44687e-05
2.26763e-06
5.20681e-06
8.39538e-05
9.57654e-06
-7.02668e-05
1.77082e-05
-0.000106926
2.43631e-05
-0.00010316
3.18363e-05
-9.89809e-05
4.03497e-05
-9.97676e-05
4.94773e-05
-0.000102961
5.90146e-05
-0.000107127
6.8979e-05
-0.000111951
7.93474e-05
-0.000117493
9.00528e-05
-0.000123621
0.00010126
-0.00013056
0.000114525
-0.000139972
0.000134377
-0.000157644
0.000139656
-0.000145308
5.86358e-05
-3.36811e-05
2.02951e-05
-5.34009e-06
3.73025e-06
-8.1056e-07
3.8836e-07
-1.23933e-07
9.33916e-08
-1.15582e-08
8.83565e-08
-2.89347e-10
7.03707e-07
3.26962e-08
2.65119e-06
2.30729e-07
8.08793e-07
7.01877e-06
9.66837e-06
-7.99352e-05
1.65928e-05
-0.000113849
2.23745e-05
-0.00010894
2.9241e-05
-0.000105846
3.69536e-05
-0.000107479
4.49528e-05
-0.000110958
5.29968e-05
-0.000115167
6.09952e-05
-0.000119939
6.88328e-05
-0.000125308
7.68372e-05
-0.000131581
8.59686e-05
-0.000139511
9.67197e-05
-0.000148811
8.32576e-05
-9.6508e-05
3.70141e-05
-1.94496e-05
5.7955e-06
-2.09287e-06
8.90058e-07
-4.36481e-07
1.34418e-07
-7.07601e-08
1.49155e-08
-8.77799e-09
3.03455e-09
-5.896e-10
2.37573e-09
-2.95971e-11
3.23027e-08
6.21725e-10
2.4696e-07
1.82865e-08
1.23247e-07
9.92213e-07
9.55926e-06
-8.94944e-05
1.5028e-05
-0.000119306
1.98336e-05
-0.000113734
2.58509e-05
-0.000111849
3.231e-05
-0.000113918
3.8626e-05
-0.000117247
4.46814e-05
-0.000121184
5.05919e-05
-0.000125734
5.72133e-05
-0.000131662
6.51068e-05
-0.000135009
6.30936e-05
-9.82722e-05
3.48502e-05
-2.48836e-05
2.09128e-05
-3.9987e-06
2.20078e-06
-5.38508e-07
2.94099e-07
-1.64021e-07
5.60782e-08
-2.14126e-07
7.8686e-09
-2.70521e-08
1.19976e-09
-3.03024e-09
3.99545e-10
-1.82669e-10
1.42832e-10
-2.94267e-11
7.38798e-10
-4.80996e-12
1.93895e-08
9.65878e-10
1.16609e-08
1.28949e-07
9.31734e-06
-9.88118e-05
1.28027e-05
-0.000122653
1.63522e-05
-0.000117141
2.12438e-05
-0.000116569
2.6295e-05
-0.000118736
3.13666e-05
-0.000121999
3.675e-05
-0.000122514
4.07091e-05
-0.000102983
3.92653e-05
-6.94799e-05
2.59722e-05
-1.42667e-05
2.40458e-05
-2.03291e-06
4.54483e-06
-2.88019e-07
6.09909e-07
-4.42221e-08
7.94664e-08
-5.34374e-09
1.36418e-07
-1.62987e-07
1.79674e-07
-7.41349e-07
8.99422e-09
-8.85862e-08
2.86572e-10
-2.74205e-09
6.87909e-11
-2.11593e-10
4.17392e-11
-3.67107e-11
3.29783e-11
-4.07471e-12
9.49961e-10
6.11163e-12
4.09337e-10
1.23415e-08
9.52539e-06
-9.76058e-05
9.8949e-06
-8.74593e-05
1.22333e-05
-8.32803e-05
1.57524e-05
-7.49214e-05
1.85535e-05
-6.17673e-05
1.97325e-05
-4.57043e-05
1.77458e-05
-1.44672e-05
1.14515e-05
-1.12558e-06
1.46881e-05
-1.18614e-07
2.36067e-06
-1.4143e-08
3.29389e-07
-1.2173e-09
5.12867e-08
-9.42677e-09
1.04668e-08
-4.66603e-09
6.38854e-09
-2.20535e-09
2.31595e-07
-3.28232e-07
5.03588e-07
-7.47369e-07
2.00445e-08
-2.1866e-07
4.2151e-10
-1.59853e-09
6.64972e-12
-8.87884e-12
4.16951e-11
-1.6226e-11
6.245e-11
-2.07251e-12
8.48298e-10
-7.87895e-12
5.21966e-12
1.58574e-09
4.97034e-06
4.01695e-24
3.04873e-06
2.50351e-23
4.22586e-06
-4.06127e-22
4.32152e-06
-6.644e-20
3.5514e-06
-5.60437e-18
4.27552e-06
-2.25499e-16
1.25979e-06
-1.38983e-15
1.34215e-07
-1.32752e-14
1.56076e-08
-4.37928e-13
1.48185e-09
-1.79613e-11
1.14672e-09
-1.10074e-09
3.11269e-09
-1.04112e-08
4.40863e-09
-5.47073e-09
3.31953e-09
-2.2738e-09
3.06596e-07
-2.51896e-07
4.57601e-07
-6.33688e-07
6.88147e-08
-2.94388e-07
3.95406e-10
1.72493e-09
8.36306e-12
2.21702e-10
7.51754e-12
-3.96569e-12
1.59011e-11
-4.47601e-13
2.50094e-10
-1.01571e-13
-1.10111e-11
4.65164e-10
-4.61598e-25
4.32151e-23
-5.58239e-24
2.64214e-22
1.26069e-23
-1.17964e-22
2.91833e-21
-2.03268e-20
3.36614e-19
-1.84765e-18
1.38805e-17
-7.8892e-17
1.36416e-16
-4.45829e-16
1.68716e-15
-1.04055e-14
5.63118e-14
-4.83744e-13
7.07992e-12
-2.47156e-11
2.09714e-09
-3.15332e-09
1.06578e-08
-1.95948e-08
1.26137e-08
-8.60752e-09
1.28031e-08
-3.36426e-09
2.4627e-07
-1.39003e-07
3.85087e-07
-5.05552e-07
6.6793e-08
-2.7894e-07
6.35124e-11
5.30094e-09
6.73516e-12
2.06869e-10
6.3325e-13
-1.38023e-13
1.79744e-13
-4.68924e-14
8.46426e-14
-1.00354e-13
-8.64487e-12
1.52769e-10
-2.37027e-24
6.82117e-23
-4.28044e-23
3.82271e-22
1.11887e-22
-2.72655e-22
1.00304e-20
-3.26194e-20
9.87198e-19
-2.84497e-18
3.88909e-17
-1.15532e-16
3.96292e-16
-8.52883e-16
3.55693e-14
-4.47915e-14
1.76956e-12
-2.22029e-12
1.10617e-10
-1.33077e-10
1.67728e-08
-1.96679e-08
6.02448e-08
-1.72871e-07
4.45358e-08
-8.17568e-08
4.34023e-08
-4.23007e-09
1.85797e-07
-8.82235e-08
3.13754e-07
-3.78031e-07
2.86905e-08
-1.36802e-07
-1.48071e-10
3.30988e-09
2.23942e-13
5.20159e-11
4.60865e-14
-1.77598e-15
5.18587e-15
-5.04081e-14
1.55846e-13
-3.03811e-13
-1.15312e-11
6.42814e-12
-3.53301e-24
6.71466e-23
-4.43493e-23
2.98569e-22
3.25378e-22
-2.14687e-21
5.14191e-20
-3.10458e-19
4.94906e-18
-2.40003e-17
1.88036e-16
-8.6304e-16
3.11026e-15
-4.7284e-15
2.07458e-13
-2.50408e-13
9.30646e-12
-1.12353e-11
5.75822e-10
-7.00019e-10
3.38794e-08
-9.44713e-08
8.51731e-08
-2.13958e-07
7.39028e-08
-1.49016e-07
6.48382e-08
-2.36304e-09
1.24562e-07
-5.61702e-08
1.9316e-07
-2.13081e-07
-4.82258e-10
8.73876e-09
-4.97145e-11
5.88828e-10
-5.07212e-14
2.3939e-12
-4.3982e-14
1.03731e-15
-5.02462e-14
-8.57518e-14
6.96188e-13
-9.86777e-13
-1.80872e-11
1.50348e-12
-3.12478e-24
4.64384e-23
-2.11283e-23
3.89586e-23
1.57724e-21
-1.70207e-20
2.52168e-19
-2.09485e-18
2.147e-17
-1.52687e-16
6.75107e-16
-4.29743e-15
1.30519e-14
-2.86059e-14
8.82927e-13
-1.02259e-12
4.4478e-11
-5.93976e-11
2.58034e-09
-3.23677e-09
8.31184e-09
-1.15114e-07
6.63204e-09
-2.01064e-07
6.13726e-09
-1.376e-07
1.05424e-08
-1.88392e-08
7.78941e-08
-7.51479e-08
-3.65652e-08
-5.81747e-08
-5.53932e-10
4.99269e-09
-2.57348e-12
3.7481e-11
-1.79717e-13
4.96543e-14
-6.32824e-14
-3.3951e-16
9.07657e-14
-1.66205e-13
5.18032e-12
-3.87945e-12
-6.59034e-11
5.92655e-11
-1.33131e-24
1.94833e-23
-1.22798e-24
-2.96618e-22
2.8915e-21
-6.53997e-20
3.87269e-19
-7.79115e-18
2.69188e-17
-6.55868e-16
4.48247e-16
-1.95123e-14
8.95745e-16
-8.63214e-14
1.07292e-12
-7.60253e-13
-2.52816e-11
-3.25539e-11
-2.41329e-09
-8.50903e-10
-2.93768e-08
-2.08406e-08
-5.33684e-08
-1.66866e-07
1.50573e-08
-1.95104e-07
-6.52923e-08
-4.02974e-08
-1.03022e-07
-9.13639e-09
-4.91254e-09
5.04459e-09
-3.65522e-11
1.16837e-10
-1.29388e-13
1.10368e-12
-7.59518e-14
4.18924e-15
-4.12978e-14
-2.86317e-15
3.61044e-13
-2.21946e-13
4.29667e-12
-4.06855e-12
-5.63502e-11
4.3017e-11
-1.48349e-25
-1.51319e-24
3.97636e-25
-6.02408e-22
-1.20373e-21
-1.23112e-19
-6.78394e-19
-1.4312e-17
-3.38191e-16
-1.32748e-15
-4.82867e-15
-5.18597e-14
8.1535e-15
-2.15219e-13
-3.57544e-13
-2.30989e-13
-3.23399e-11
-1.0154e-14
-8.83933e-10
-3.80511e-14
-2.17301e-08
-3.36067e-13
-5.32673e-08
-2.76986e-12
-1.06455e-07
-1.77658e-11
-3.38881e-08
-1.01287e-10
-5.17359e-09
-3.19612e-10
-1.15688e-10
9.08287e-11
-1.14816e-12
2.48507e-12
-4.93906e-14
1.59213e-14
-6.30207e-14
9.17021e-16
-5.3443e-14
-4.01548e-15
-3.95565e-14
-1.25062e-13
-1.11729e-12
-1.90825e-12
-2.36114e-11
-2.36744e-11
-5.953e-26
-3.02014e-24
-5.12202e-23
-6.7539e-22
-1.3294e-20
-1.10408e-19
-3.28192e-18
-1.11359e-17
-1.4062e-15
-1.24467e-15
-3.17647e-14
-4.88982e-14
-3.90196e-14
-1.69025e-13
-2.66675e-15
-1.62815e-13
-4.86931e-15
-8.6439e-15
-3.99091e-14
-6.69987e-15
-3.61464e-13
-1.84558e-14
-3.09928e-12
-3.63454e-14
-2.06107e-11
-1.23137e-13
-1.20902e-10
-5.72269e-13
-1.00064e-10
-2.35255e-12
-2.51046e-12
3.05422e-13
-2.31439e-14
9.20533e-15
-8.47973e-15
-8.09312e-19
-1.69318e-14
-8.45578e-17
-3.11439e-14
-2.11249e-15
-2.02176e-13
-3.00708e-14
-2.39008e-12
-3.92007e-13
-4.01737e-12
-2.69411e-11
-1.08846e-24
-1.93167e-24
-3.26861e-22
-3.3584e-22
-6.56286e-20
-4.37072e-20
-7.89568e-18
-3.59064e-18
-1.86467e-15
-2.63853e-16
-3.48959e-14
-1.33077e-14
-4.53595e-14
-6.07324e-14
-3.08826e-15
-5.77034e-14
-3.2095e-15
-8.59611e-15
-6.08427e-15
-7.00227e-15
-1.04761e-14
-1.76017e-14
-2.76782e-14
-2.10586e-14
-1.14866e-13
-1.98935e-14
-6.09888e-13
-2.87085e-14
-3.15128e-13
-3.79047e-14
-9.6996e-15
-3.37335e-18
-4.86868e-16
-1.97899e-17
-8.56769e-16
-7.8425e-18
-4.89349e-15
-5.02636e-17
-1.29407e-14
-3.93612e-16
-9.01125e-14
-3.5609e-15
-7.01617e-13
-3.73719e-14
-3.12365e-13
-7.17431e-12
-3.37166e-24
1.43999e-24
-2.69939e-22
-6.80304e-23
-3.57593e-20
-8.4642e-21
-2.94984e-18
-6.25853e-19
-3.32096e-16
-3.39955e-18
-7.88682e-15
-1.39296e-18
-1.05282e-14
-3.0425e-17
-4.32855e-15
-2.60714e-16
-3.54966e-15
-7.91939e-16
-1.0875e-14
-6.0937e-15
-2.41232e-14
-2.53646e-14
-2.69376e-14
-3.70682e-14
-2.75227e-14
-2.96095e-14
-2.13495e-14
-1.1779e-14
-8.85357e-18
-3.7158e-16
-9.47865e-18
-9.59908e-19
-2.96916e-17
-4.9986e-19
-9.69002e-17
-1.15339e-18
-7.63623e-16
-6.41854e-18
-3.87544e-15
-4.17147e-17
-1.42856e-14
-2.65573e-16
-9.86483e-14
-1.73799e-15
-1.00017e-16
-8.21977e-13
-2.48044e-24
5.08844e-24
-1.4007e-22
6.95595e-23
-1.3351e-20
2.76448e-22
-2.88951e-19
-2.16459e-22
-8.24762e-20
-9.93345e-21
-1.18227e-18
-4.12969e-19
-2.09542e-17
-1.08544e-17
-1.50359e-16
-1.32744e-16
-9.87872e-16
-4.9368e-16
-1.17957e-14
-7.24468e-16
-3.58042e-14
-5.52553e-16
-3.923e-14
-2.39562e-16
-3.24958e-14
-7.85321e-16
-1.50934e-15
-8.20202e-16
-5.25954e-18
-3.05095e-16
-1.62322e-18
-4.75944e-19
-1.86726e-18
-1.50523e-19
-7.76827e-18
-2.88334e-19
-5.72489e-17
-7.41074e-19
-4.69054e-16
-3.51118e-18
-2.89069e-15
-1.78347e-17
-1.53142e-14
-2.24439e-17
8.49957e-16
-1.42476e-13
2.99296e-24
2.10791e-24
2.43655e-23
2.80238e-23
-3.89364e-23
1.04534e-22
-1.6044e-22
-9.49557e-23
-6.28283e-21
-4.06609e-21
-2.72857e-19
-1.65647e-19
-1.76548e-17
-5.68866e-18
-1.75727e-16
-6.21695e-17
-2.85659e-16
-1.8811e-16
-2.95396e-16
-2.33201e-16
-2.21062e-16
-2.09753e-16
-3.84751e-16
-1.6052e-16
-7.1272e-16
-1.38821e-16
-7.27406e-16
-1.15991e-16
-1.43598e-18
-3.2034e-17
-3.9984e-19
-9.50508e-20
-5.48004e-19
-7.45551e-20
-1.2219e-18
-1.16493e-19
-4.61594e-18
-1.15577e-19
-3.44467e-17
-2.02219e-19
-3.31347e-16
-7.38987e-19
-5.55505e-15
5.78298e-18
2.07834e-16
-3.03141e-14
1.31458e-24
4.39451e-25
1.00107e-23
5.90213e-24
-1.77974e-23
2.31201e-23
-9.54109e-23
-1.73422e-23
-3.48207e-21
-7.0064e-22
-1.44569e-19
-2.49473e-20
-5.68026e-18
-8.72699e-19
-5.17809e-17
-2.17818e-17
-1.26176e-16
-1.13168e-16
-1.50394e-16
-1.84165e-16
-1.55568e-16
-1.7856e-16
-1.19814e-16
-1.29946e-16
-1.12016e-16
-3.21873e-17
-5.47797e-17
-4.90785e-18
-1.41281e-19
-2.99225e-19
-1.44843e-19
-1.34849e-20
-2.8072e-19
-1.72249e-20
-3.43846e-19
-2.35643e-20
-4.69296e-19
-1.7826e-20
-1.81476e-18
-1.20118e-20
-1.59979e-17
-2.70943e-20
-2.229e-16
3.24162e-19
1.38446e-17
-3.0426e-15
2.92892e-25
-6.60014e-31
2.33803e-24
-1.31228e-28
-2.71553e-24
-1.27175e-26
-1.91472e-23
-9.10512e-25
-6.87244e-22
-3.48766e-23
-2.4447e-20
-1.28932e-21
-1.02944e-18
-3.95563e-20
-2.34385e-17
-1.462e-18
-9.36125e-17
-2.13668e-17
-1.29806e-16
-7.95573e-17
-1.34553e-16
-1.11858e-16
-5.96779e-17
-9.34419e-17
-1.25561e-17
-3.75608e-17
-1.02852e-18
-6.29809e-18
-2.03051e-20
-3.51833e-19
-2.29922e-20
-3.50947e-21
-4.90262e-20
-1.0598e-21
-5.36623e-20
-1.01657e-21
-4.6493e-20
-8.60178e-22
-8.99064e-20
-4.98529e-22
-7.10172e-19
-9.20567e-22
-1.00611e-17
1.76158e-20
6.49774e-19
-1.73372e-16
-6.57287e-31
-2.727e-33
-1.31325e-28
-5.59928e-31
-1.27926e-26
-5.61316e-29
-9.20285e-25
-2.29152e-27
-3.56958e-23
-9.21846e-26
-1.32158e-21
-3.55924e-24
-4.14477e-20
-1.12725e-22
-1.64078e-18
-3.64148e-21
-1.93131e-17
-1.03249e-19
-5.53407e-17
-6.67702e-19
-6.273e-17
-1.38868e-18
-5.68234e-17
-1.51952e-18
-1.53204e-17
-8.42308e-19
-1.15614e-18
-1.71686e-19
-1.26778e-20
-3.78557e-20
-2.7319e-21
-5.07183e-21
-1.90785e-21
-7.52131e-22
-2.19078e-21
-1.42695e-23
-1.90613e-21
-1.13998e-23
-3.41058e-21
-1.22902e-23
-2.74336e-20
-3.07492e-23
-4.32436e-19
7.29199e-22
2.66249e-20
-7.9394e-18
-2.71635e-33
-1.06509e-35
-5.59654e-31
-2.26439e-33
-5.63877e-29
-2.38055e-31
-2.34719e-27
-9.9899e-30
-9.42525e-26
-4.36945e-28
-3.63212e-24
-1.78733e-26
-1.16233e-22
-6.03306e-25
-4.68436e-21
-2.07528e-23
-1.04823e-19
-6.30245e-22
-4.50991e-19
-4.68315e-21
-6.95164e-19
-1.20461e-20
-6.23808e-19
-1.61134e-20
-1.86713e-19
-1.51695e-20
-5.14991e-20
-7.61761e-21
-1.65478e-20
-3.56075e-21
-2.90432e-21
-1.77486e-21
-2.47045e-23
-3.73172e-22
-2.60887e-23
-2.11785e-25
-2.90652e-23
-1.55259e-25
-9.28966e-23
-3.2131e-25
-9.52905e-22
-9.95579e-25
-1.76326e-20
2.56821e-23
9.8591e-22
-3.19712e-19
-1.06478e-35
-3.1139e-39
-2.27415e-33
-6.99365e-37
-2.40237e-31
-7.78952e-35
-1.02994e-29
-3.39361e-33
-4.47115e-28
-1.62782e-31
-1.83181e-26
-7.08885e-30
-6.2384e-25
-2.55082e-28
-2.50691e-23
-7.81348e-27
-6.08343e-22
-2.41667e-25
-3.28242e-21
-7.2897e-24
-6.85682e-21
-6.27628e-23
-8.14611e-21
-1.81356e-22
-6.40485e-21
-2.5524e-22
-3.66719e-21
-2.4033e-22
-2.5007e-21
-9.95833e-23
-9.56851e-22
-1.4503e-23
-3.74815e-25
-1.46993e-24
-3.31535e-25
-6.2186e-27
-4.28829e-25
-2.38671e-27
-2.45652e-24
-8.22892e-27
-2.94721e-23
-2.99897e-26
-6.54996e-22
7.66159e-25
3.20402e-23
-1.20446e-20
-3.11174e-39
-2.15721e-42
-7.02418e-37
-5.53297e-40
-7.86302e-35
-7.01737e-38
-3.4909e-33
-3.52064e-36
-1.66044e-31
-1.86878e-34
-7.25123e-30
-8.76257e-33
-2.6197e-28
-3.40454e-31
-8.08859e-27
-1.12686e-29
-2.98396e-25
-3.33472e-28
-8.38999e-24
-1.2861e-26
-5.40313e-23
-1.82387e-25
-1.23434e-22
-7.49132e-25
-1.48981e-22
-1.27072e-24
-1.0958e-22
-1.30781e-24
-2.29928e-23
-7.08107e-25
-3.16409e-24
-1.18288e-25
-2.68146e-26
-2.50024e-26
-5.27324e-27
-4.96249e-27
-6.97336e-27
-3.71891e-29
-5.93139e-26
-1.79602e-28
-7.93065e-25
-8.06498e-28
-2.10392e-23
1.88408e-26
9.11347e-25
-4.04509e-22
-2.23899e-42
-1.93363e-46
-5.7196e-40
-5.0427e-44
-7.22983e-38
-6.47337e-42
-3.59239e-36
-4.6291e-40
-1.9044e-34
-2.65457e-38
-8.95317e-33
-1.34771e-36
-3.49362e-31
-5.69102e-35
-1.16162e-29
-2.05172e-33
-3.5938e-28
-6.47013e-32
-1.68479e-26
-2.08685e-30
-1.82252e-25
-6.74286e-29
-5.48614e-25
-7.01456e-28
-7.63451e-25
-2.37576e-27
-6.69898e-25
-3.70864e-27
-1.66905e-25
-3.72959e-27
-4.07903e-26
-2.31259e-27
-1.89049e-26
-8.04095e-28
-7.68905e-29
-2.4396e-28
-1.10333e-28
-5.76547e-31
-1.22228e-27
-3.32544e-30
-1.80652e-26
-1.8075e-29
-5.95956e-25
3.70019e-28
2.23365e-26
-1.20894e-23
-1.93337e-46
-2.62915e-50
-5.06119e-44
-7.47482e-48
-6.52286e-42
-1.04568e-45
-4.69349e-40
-8.16611e-44
-2.70143e-38
-5.11636e-42
-1.37514e-36
-2.83745e-40
-5.82784e-35
-1.31179e-38
-2.1097e-33
-5.1879e-37
-6.69589e-32
-1.7935e-35
-2.5788e-30
-5.54068e-34
-8.76587e-29
-1.89999e-32
-6.97082e-28
-5.47314e-31
-1.8241e-27
-4.90449e-30
-2.48687e-27
-1.37122e-29
-2.31578e-27
-1.71453e-29
-1.18067e-27
-1.37306e-29
-5.31058e-28
-2.63663e-30
-1.11766e-30
-1.93046e-32
-1.64388e-30
-1.85666e-32
-2.12788e-29
-5.13352e-32
-3.38131e-28
-3.44805e-31
-1.59568e-26
5.82187e-30
4.59545e-28
-3.21903e-25
-2.62872e-50
-4.35785e-54
-7.49977e-48
-1.36347e-51
-1.05298e-45
-2.09831e-49
-8.28083e-44
-1.78792e-47
-5.2015e-42
-1.24594e-45
-2.89033e-40
-7.61369e-44
-1.34052e-38
-3.88513e-42
-5.32119e-37
-1.6987e-40
-1.84647e-35
-6.50314e-39
-5.76595e-34
-2.2199e-37
-2.63643e-32
-7.44773e-36
-7.9782e-31
-2.92761e-34
-5.29463e-30
-4.14364e-33
-1.07579e-29
-1.63202e-32
-1.1104e-29
-2.47024e-32
-4.42835e-30
-2.20446e-32
-2.43764e-32
-6.12186e-33
-2.58321e-32
-6.2892e-34
-3.8904e-32
-3.46135e-34
-3.12087e-31
-6.8293e-34
-5.35033e-30
-5.6291e-33
-2.69329e-28
7.69571e-32
8.11035e-30
-7.41285e-27
-4.35782e-54
-3.52509e-59
-1.36782e-51
-1.22602e-56
-2.11196e-49
-2.09645e-54
-1.80643e-47
-1.95544e-52
-1.26263e-45
-1.54013e-50
-7.7399e-44
-1.04772e-48
-3.96261e-42
-5.95282e-47
-1.73832e-40
-2.90101e-45
-6.67697e-39
-1.23939e-43
-2.28829e-37
-4.72147e-42
-8.99249e-36
-1.62667e-40
-4.58324e-34
-5.281e-39
-5.01165e-33
-2.15628e-37
-1.38968e-32
-4.42251e-36
-1.56835e-32
-2.49186e-35
-8.7125e-33
-4.68247e-35
-9.25257e-34
-4.512e-35
-6.11473e-34
-1.52928e-35
-5.37638e-34
-7.53888e-37
-3.95446e-33
-8.08748e-36
-7.23306e-32
-7.79926e-35
-3.79297e-30
8.46199e-34
1.24076e-31
-1.48665e-28
-3.52449e-59
-5.92146e-63
-1.22902e-56
-2.34809e-60
-2.10694e-54
-4.56823e-58
-1.94398e-52
-4.77402e-56
-1.55933e-50
-4.37312e-54
-1.06396e-48
-3.34629e-52
-6.05939e-47
-2.13974e-50
-2.96169e-45
-1.17478e-48
-1.2691e-43
-5.66015e-47
-4.8489e-42
-2.43427e-45
-1.67532e-40
-9.47422e-44
-5.61917e-39
-3.39534e-42
-3.78054e-37
-1.45178e-40
-6.84364e-36
-4.6103e-39
-2.68952e-35
-4.02161e-38
-3.69582e-35
-9.84262e-38
-2.52591e-35
-1.05868e-37
-1.10905e-36
-4.51818e-38
-1.83791e-36
-4.62418e-39
-4.24366e-35
-7.84489e-38
-8.35857e-34
-9.1648e-37
-4.53799e-32
7.60546e-36
1.65648e-33
-2.59401e-30
-5.85934e-63
-1.52234e-67
-2.323e-60
-6.79842e-65
-4.52037e-58
-1.48673e-62
-4.81912e-56
-2.00586e-60
-4.42122e-54
-2.09175e-58
-3.3909e-52
-1.82288e-56
-2.17372e-50
-1.32882e-54
-1.19653e-48
-8.32317e-53
-5.77994e-47
-4.57868e-51
-2.49215e-45
-2.25017e-49
-9.72386e-44
-1.00151e-47
-3.54236e-42
-4.08808e-46
-2.39958e-40
-1.71606e-44
-7.90243e-39
-8.19766e-43
-4.7173e-38
-1.32767e-41
-7.87212e-38
-5.06001e-41
-6.18308e-38
-6.63884e-41
-6.14436e-39
-4.83923e-41
-1.18605e-38
-3.7558e-41
-3.61278e-37
-6.40134e-40
-8.20378e-36
-9.10866e-39
-4.65973e-34
5.35695e-38
1.94375e-35
-3.9467e-32
-1.52234e-67
-5.78103e-73
-6.81363e-65
-2.99209e-70
-1.49354e-62
-7.57731e-68
-2.02079e-60
-1.18426e-65
-2.11e-58
-1.42792e-63
-1.84455e-56
-1.44456e-61
-1.34729e-54
-1.22016e-59
-8.45796e-53
-8.86181e-58
-4.6633e-51
-5.65628e-56
-2.29683e-49
-3.22734e-54
-1.02449e-47
-1.66875e-52
-4.19619e-46
-7.90695e-51
-2.25392e-44
-3.4659e-49
-1.54166e-42
-1.46962e-47
-1.83295e-41
-7.92377e-46
-4.43086e-41
-2.02417e-44
-4.33078e-41
-1.14664e-43
-2.78449e-41
-1.99669e-43
-7.96635e-41
-3.3078e-43
-2.49464e-39
-4.35528e-42
-6.80737e-38
-7.6282e-41
-4.12399e-36
2.68962e-40
2.01824e-37
-5.2533e-34
-5.78073e-73
-2.95375e-77
-2.99781e-70
-1.82006e-74
-7.60712e-68
-5.46715e-72
-1.1808e-65
-1.00094e-69
-1.46522e-63
-1.46564e-67
-1.45943e-61
-1.73951e-65
-1.2349e-59
-1.74098e-63
-8.98637e-58
-1.49878e-61
-5.74705e-56
-1.13456e-59
-3.28549e-54
-7.68218e-58
-1.70206e-52
-4.71677e-56
-8.07977e-51
-2.65541e-54
-3.54809e-49
-1.3832e-52
-1.61845e-47
-6.74728e-51
-1.66436e-45
-4.05441e-49
-3.40781e-44
-1.73726e-47
-1.05701e-43
-1.65229e-46
-1.58021e-43
-4.18706e-46
-5.13576e-43
-1.2006e-45
-1.40922e-41
-2.4432e-44
-4.7352e-40
-5.27205e-43
-3.01367e-38
5.71943e-43
1.86225e-39
-6.12977e-36
-2.95374e-77
-9.131e-83
-1.82301e-74
-7.01481e-80
-5.48529e-72
-2.59405e-77
-1.08196e-69
-5.99546e-75
-1.47817e-67
-1.04149e-72
-1.75429e-65
-1.51159e-70
-1.75856e-63
-1.85042e-68
-1.51638e-61
-1.94847e-66
-1.14974e-59