/*--------------------------------*- C++ -*----------------------------------*\
| =========                 |                                                 |
| \\      /  F ield         | OpenFOAM: The Open Source CFD Toolbox           |
|  \\    /   O peration     | Version:  5.x                                   |
|   \\  /    A nd           | Web:      www.OpenFOAM.org                      |
|    \\/     M anipulation  |                                                 |
\*---------------------------------------------------------------------------*/
FoamFile
{
    version     2.0;
    format      ascii;
    class       volScalarField;
    location    "0.2";
    object      alpha.water;
}
// * * * * * * * * * * * * * * * * * * * * * * * * * * * * * * * * * * * * * //

dimensions      [0 0 0 0 0 0 0];

internalField   nonuniform List<scalar> 
2268
(
1
1
1
1
1
1
1
1
1
1
1
1
1
1
1
1
1
1
1
1
1
0.885385
0.603927
0.999999
1
1
1
1
1
1
1
1
1
1
1
1
1
1
1
1
1
1
1
1
0.989429
0.945357
1
1
1
1
1
1
1
1
1
1
1
1
1
1
1
1
1
1
1
1
1
0.999999
0.968589
1
1
1
1
1
1
1
1
1
1
1
1
1
1
1
1
1
1
1
1
1
1
0.989324
1
1
1
1
1
1
1
1
1
1
1
1
1
1
1
1
1
1
1
1
1
1
0.942433
1
1
1
1
1
1
1
1
1
1
1
1
1
1
1
1
1
1
1
1
1
1
0.740323
1
1
1
1
1
1
1
1
1
1
1
1
1
1
1
1
1
1
1
1
1
1
0.852354
1
1
1
1
1
1
1
1
1
1
1
1
1
1
1
1
1
1
1
0.999999
0.999999
1
0.999655
1.10212e-19
1.15367e-19
4.20585e-20
3.90464e-21
7.95893e-23
9.96834e-25
3.56669e-26
1.83633e-27
7.4457e-29
2.39721e-30
6.63042e-32
1.5771e-33
3.13235e-35
5.09301e-37
6.5311e-39
6.35282e-41
4.28162e-43
1.68599e-45
2.47546e-48
7.31648e-18
1.33824e-17
5.10886e-18
4.8112e-19
1.10502e-20
1.91491e-22
5.83392e-24
2.33238e-25
8.35745e-27
2.5167e-28
6.55315e-30
1.46974e-31
2.75968e-33
4.21766e-35
5.0112e-37
4.34981e-39
2.40424e-41
5.59863e-44
2.74312e-48
3.05836e-16
9.22014e-16
4.62023e-16
4.06271e-17
9.61557e-19
1.88032e-20
4.53367e-22
1.29378e-23
3.67458e-25
9.52948e-27
2.20989e-28
4.48317e-30
7.67968e-32
1.06914e-33
1.14479e-35
8.49829e-38
3.79715e-40
6.36207e-43
1.61166e-48
1.27707e-14
7.63367e-14
8.88118e-14
5.31111e-15
7.09812e-17
1.41465e-18
3.33786e-20
6.39112e-22
1.2904e-23
2.73597e-25
5.46601e-27
9.79847e-29
1.50558e-30
1.87811e-32
1.8064e-34
1.22505e-36
4.88944e-39
6.50704e-42
1.11095e-47
8.41306e-13
4.9068e-12
3.47914e-12
1.7104e-13
1.73958e-15
3.87464e-17
1.30497e-18
2.64286e-20
4.14163e-22
6.31523e-24
1.04252e-25
1.62351e-27
2.23639e-29
2.56141e-31
2.26304e-33
1.43578e-35
5.2368e-38
3.66426e-41
3.22123e-47
1.209e-11
6.22589e-11
1.33029e-11
7.77193e-13
1.38435e-14
2.99313e-16
1.06704e-17
3.04666e-19
6.64008e-21
9.48022e-23
1.40101e-24
2.0119e-26
2.5742e-28
2.73325e-30
2.34542e-32
1.44655e-34
4.55203e-37
2.05143e-41
9.99678e-48
4.89382e-11
7.78875e-11
2.06932e-11
5.24835e-13
5.76528e-14
1.11872e-15
2.23908e-17
6.96392e-19
2.16942e-20
5.58739e-22
1.06118e-23
1.66571e-25
2.151e-27
2.30943e-29
1.99257e-31
1.17717e-33
3.58848e-36
1.10778e-40
5.87403e-47
0
1.27352e-11
2.21803e-11
1.35617e-12
4.8209e-14
3.41578e-15
9.46223e-18
9.62484e-20
1.43659e-21
2.92488e-22
4.82768e-23
9.7198e-25
1.43524e-26
1.6291e-28
1.3384e-30
6.90684e-33
1.37411e-35
5.87564e-40
3.8631e-46
1
1
1
1
1
1
1
1
1
1
1
1
1
1
1
1
1
1
1
1
0.999999
1
1.00001
1
1
1
1
1
1
1
1
1
1
1
1
1
1
1
1
0.999999
1
1
1
1
1
0.999947
1
1
1
1
1
1
1
1
1
1
1
1
1
0.999998
0.999994
0.999979
0.999967
0.999968
0.999158
0.999999
0.999999
1
0.999979
1
1
1
1
1
1
1
1
1
1
1
0.999999
0.999993
0.999974
0.999867
0.999517
0.996938
0.927951
0.82008
0.600574
0.495261
0.594206
0.865392
1
1
1
1
1
1
1
1
0.999999
0.999998
0.999994
0.99998
0.999904
0.999575
0.998063
0.874602
0.589754
0.143145
0.000360565
0.00428074
0.00428581
0.0169169
0.107477
1
1
1
1
1
0.999999
0.999999
0.999997
0.999992
0.999978
0.999928
0.999743
0.998879
0.980299
0.656545
0.0989658
0.000573215
9.55106e-05
1.54306e-05
2.29758e-06
3.34577e-05
0.000319517
0.00150061
1
0.999996
0.999996
0.999996
0.999994
0.99999
0.999982
0.99996
0.999898
0.999741
0.999195
0.996025
0.876643
0.388964
0.00167204
0.000371566
8.92757e-05
1.62704e-05
2.38254e-06
7.46201e-07
-1.33246e-07
2.15285e-05
0.000128687
1
0.999955
0.999955
0.999947
0.99992
0.999872
0.999785
0.999545
0.99887
0.993721
0.905228
0.596996
0.139544
0.000228175
0.000302167
8.95805e-05
1.61e-05
2.624e-06
7.95158e-07
4.81357e-07
1.11088e-07
-1.0795e-06
1.05267e-05
1
0.999507
0.999494
0.999372
0.999074
0.998546
0.994363
0.951069
0.820656
0.542602
0.206262
0.000114835
2.5307e-05
1.40691e-05
0.000288201
0.00114232
0.0004082
1.44966e-05
4.72483e-07
1.27365e-07
8.10647e-08
2.96204e-08
7.62472e-07
0.987351
0.927169
0.924768
0.89107
0.823215
0.713312
0.536974
0.311995
0.109364
5.08659e-06
2.33837e-06
7.57112e-06
1.25304e-05
1.20077e-05
0.00109317
0.00386288
0.002128
2.16382e-05
6.46354e-07
8.02693e-08
2.96992e-08
3.48362e-06
3.2424e-06
0.436229
0.255706
0.245885
0.191258
0.118725
0.0467852
-4.16192e-10
-4.02053e-12
-5.59758e-09
6.69138e-09
1.79715e-06
3.38946e-06
7.57112e-06
1.20086e-05
0.00219228
0.00386278
0.00303269
8.51035e-05
4.11756e-07
2.55383e-08
4.59858e-09
1.4665e-06
3.32673e-06
-3.32436e-20
-2.00868e-19
-9.11619e-55
1.51704e-19
2.46008e-17
2.06595e-15
8.1354e-14
6.18654e-13
5.5129e-12
-6.47335e-11
-3.54592e-08
2.14078e-06
8.74086e-06
1.1924e-05
0.00150182
0.00386294
0.00317622
9.86706e-05
1.55599e-07
4.59138e-09
1.36431e-09
1.43356e-09
4.2869e-07
-3.20779e-19
-1.90712e-18
0
2.30042e-18
5.91801e-17
1.62513e-15
1.79962e-13
-4.92884e-13
-1.20924e-12
7.22655e-11
-8.28188e-08
0.000329454
0.000178275
1.47648e-05
0.00131889
0.00385163
0.00280179
5.20581e-05
8.82008e-09
1.3547e-09
1.35712e-09
1.36431e-09
2.71663e-08
-4.79999e-19
-2.4888e-18
1.94084e-18
3.63605e-16
2.73908e-14
1.14845e-12
1.49449e-12
6.2989e-12
2.82478e-11
3.1662e-09
0.000104991
0.000813944
0.000822305
3.01342e-05
0.00148884
0.00383891
0.00181646
3.04058e-06
8.25006e-10
1.33837e-09
1.3547e-09
1.4221e-09
1.7044e-07
-4.49236e-19
-1.81993e-18
3.92911e-17
4.96388e-15
3.42217e-13
9.9445e-12
5.22616e-11
5.62119e-10
7.78281e-09
2.85237e-08
0.000367958
0.00082261
0.000822335
7.01981e-05
0.00111542
0.00351145
4.33658e-05
1.44635e-09
2.54553e-10
1.17947e-09
1.34225e-09
3.30391e-09
1.01038e-07
-2.96875e-19
-2.30922e-19
2.02544e-16
2.26399e-14
1.65345e-12
4.39529e-11
2.20051e-10
2.20988e-09
2.10681e-09
1.10241e-07
0.000239004
0.000813944
0.000822335
0.000396777
0.00137222
0.00137482
1.60459e-08
1.69129e-10
1.56905e-10
3.10543e-10
1.21608e-09
1.03255e-08
1.33636e-07
-1.21083e-19
1.35485e-18
4.0008e-16
4.17231e-14
4.11314e-12
1.51931e-10
5.46938e-10
9.37278e-10
-8.92215e-11
-1.68449e-09
-9.20614e-09
0.000164574
0.000457076
0.000470903
2.75398e-05
1.16954e-07
7.03181e-10
2.10216e-11
7.80891e-11
2.15055e-10
1.24977e-09
9.42486e-09
1.05266e-07
5.70038e-22
1.76032e-18
2.76337e-16
2.50804e-14
5.44314e-12
2.63901e-10
9.96094e-10
7.90643e-10
2.89687e-11
2.74086e-11
3.23358e-11
4.26773e-11
1.056e-10
5.60716e-10
1.20563e-07
4.37019e-09
1.91172e-11
2.78992e-12
2.56927e-11
1.00676e-10
5.97493e-10
3.86483e-09
3.82553e-08
0
3.13419e-20
7.86983e-18
1.83669e-15
4.30563e-12
2.38292e-10
8.81395e-10
5.90131e-10
2.8367e-11
2.77222e-11
2.74808e-11
3.31184e-11
4.98317e-11
9.55233e-11
5.51759e-10
2.09052e-14
3.91217e-14
6.9127e-13
1.15183e-11
4.66248e-11
1.42476e-10
8.0739e-10
8.08484e-09
0
7.19564e-21
3.7088e-18
7.29992e-16
4.18287e-13
3.79622e-11
1.63299e-10
1.65095e-10
4.32607e-11
3.21472e-11
1.0678e-10
1.44378e-10
1.33382e-10
1.15675e-10
8.16361e-11
1.54915e-14
1.0388e-14
1.1606e-13
1.54958e-12
8.88002e-12
3.05924e-11
1.2096e-10
1.04408e-09
-9.46732e-21
3.15619e-36
1.63689e-17
2.68565e-15
1.0004e-14
1.29654e-15
2.23295e-15
1.39415e-14
2.78161e-12
3.51344e-11
1.60052e-10
2.59293e-10
2.59293e-10
1.32517e-10
4.01259e-12
1.64177e-14
8.3311e-15
1.43391e-14
9.94849e-14
7.6576e-13
4.65519e-12
2.6428e-11
2.66686e-10
-3.47972e-20
-4.66752e-19
-1.84256e-18
-1.75749e-29
1.57052e-18
1.80921e-16
4.47287e-14
8.67744e-13
2.8231e-12
3.21406e-12
2.46521e-12
1.83367e-12
3.61182e-12
4.99381e-12
4.66746e-12
5.82812e-15
2.57465e-15
6.04378e-15
1.16601e-14
4.71835e-14
4.39214e-13
8.15883e-12
4.18749e-11
-1.5076e-20
-1.97049e-19
-7.32731e-19
-2.0921e-30
7.36207e-19
1.77322e-16
2.15889e-14
2.8747e-13
1.0554e-12
1.58001e-12
1.61709e-12
1.30993e-12
9.19588e-13
7.8351e-13
2.43354e-13
1.0628e-15
1.28119e-15
2.53125e-15
2.77791e-15
3.01362e-15
1.99003e-14
2.65685e-13
3.79154e-12
-3.30049e-21
-4.36462e-20
-1.70949e-19
-3.45187e-32
9.87496e-20
5.5273e-18
1.58316e-15
9.43064e-14
6.67818e-13
1.37408e-12
1.5367e-12
1.17886e-12
3.53837e-13
6.2574e-14
4.5634e-15
1.69101e-16
2.46409e-16
4.34457e-16
4.44874e-16
2.64047e-16
8.12213e-16
9.38887e-15
1.77887e-13
0
0
6.10904e-39
8.32778e-24
4.11532e-22
2.63867e-20
8.25652e-18
4.3323e-15
9.41263e-14
4.22809e-13
7.05705e-13
7.24182e-13
4.51032e-13
8.58755e-14
5.65039e-15
6.91372e-17
2.13775e-17
1.73455e-17
2.04118e-17
1.18116e-17
3.06265e-17
3.38146e-16
6.81549e-15
7.28254e-46
5.38352e-30
5.67145e-28
-6.69829e-26
2.78063e-24
1.46981e-22
7.02818e-21
6.14873e-18
4.32449e-16
3.20265e-15
7.21029e-15
8.70186e-15
5.37482e-15
1.26887e-15
3.45991e-16
1.04736e-16
1.56543e-17
2.44483e-19
2.58264e-19
2.00915e-19
1.12786e-18
1.36486e-17
2.44471e-16
5.50849e-65
1.75105e-33
1.66965e-31
-5.46375e-28
6.89493e-29
5.58685e-26
1.19088e-23
3.53377e-20
2.77327e-18
2.40328e-17
6.743e-17
9.90082e-17
1.05098e-16
6.09838e-17
3.40949e-17
2.13319e-17
6.09142e-18
3.76392e-21
3.21676e-21
4.04313e-21
3.6669e-20
5.47134e-19
8.77558e-18
-8.48801e-68
-4.14069e-36
-1.05705e-33
-2.62054e-31
9.9505e-31
7.95766e-29
3.28265e-27
2.08134e-25
3.82643e-22
3.51869e-20
3.70777e-19
1.19326e-18
1.86985e-18
2.01987e-18
9.53247e-19
1.62288e-19
2.02069e-20
1.88966e-22
4.35496e-23
9.64625e-23
1.02201e-21
1.83177e-20
2.9207e-19
-9.25659e-40
-2.29526e-37
-2.85059e-35
2.29953e-36
1.48944e-34
1.16651e-32
5.95053e-31
2.1715e-29
1.04657e-25
5.7607e-23
1.12908e-21
5.22694e-21
9.83812e-21
1.14663e-20
7.09998e-21
1.4069e-21
3.71712e-22
1.5884e-22
5.99862e-25
1.87894e-24
2.40448e-23
4.97159e-22
8.43428e-21
-5.92031e-60
3.20807e-44
4.52765e-42
4.26452e-40
-6.22126e-39
2.32747e-36
1.42824e-34
5.72918e-33
1.06621e-30
3.66965e-27
3.84998e-25
5.08676e-24
1.94811e-23
3.42702e-23
3.97341e-23
2.91812e-23
1.24238e-23
4.79109e-24
9.12094e-27
3.19339e-26
4.56323e-25
1.15048e-23
2.03832e-22
1.9907e-62
6.13825e-48
9.53583e-46
-1.2765e-42
1.79082e-43
7.0154e-40
4.45496e-38
2.04851e-36
7.96011e-35
2.55627e-32
5.47288e-29
3.78383e-27
4.21568e-26
1.33877e-25
1.91212e-25
1.80536e-25
4.13629e-26
3.95494e-28
4.46889e-28
4.12835e-28
7.25689e-27
1.58721e-25
4.1443e-24
-4.76038e-66
5.77531e-53
-2.98927e-50
-5.04172e-46
-3.35081e-45
7.04644e-45
6.32418e-43
3.60113e-41
1.57113e-39
9.44249e-37
9.38357e-33
1.91799e-30
3.69938e-29
1.67253e-28
2.88445e-28
3.02982e-28
1.00884e-28
1.35954e-29
9.01078e-30
4.84857e-30
1.01069e-28
1.75328e-27
7.17791e-26
-2.12156e-73
-7.74143e-56
-2.83129e-53
-9.81912e-51
2.97989e-50
3.33191e-48
2.62097e-46
1.51622e-44
7.71184e-43
3.4277e-41
1.50076e-39
2.66361e-36
1.37029e-33
4.51938e-32
3.04982e-31
6.70393e-31
7.85084e-31
3.35304e-31
9.0191e-33
6.46337e-32
1.20541e-30
1.67773e-29
1.06704e-27
-1.3169e-60
-4.91641e-58
-9.139e-56
1.33442e-56
1.48431e-54
1.72533e-52
1.65123e-50
1.11303e-48
6.46705e-47
3.38994e-45
1.57983e-43
2.57907e-40
6.96125e-37
4.71478e-35
5.11263e-34
1.46556e-33
1.90191e-33
1.00996e-33
2.2318e-35
5.59177e-34
1.19571e-32
1.50169e-31
1.36474e-29
7.24201e-81
1.86484e-66
4.77554e-64
8.17058e-62
-1.60621e-58
8.72643e-58
1.40761e-55
1.20323e-53
8.12247e-52
4.94435e-50
2.68713e-48
3.44133e-45
3.67596e-41
7.77043e-39
1.73369e-37
7.81206e-37
1.22833e-36
1.09898e-36
3.11042e-37
3.81519e-36
1.00845e-34
1.3733e-33
1.49533e-31
5.14115e-86
1.17175e-70
3.56051e-68
-9.05068e-65
-5.44289e-64
1.51838e-61
2.30286e-59
2.10173e-57
1.68151e-55
1.21495e-53
8.04621e-52
4.83341e-50
3.10434e-48
1.28319e-44
7.45192e-42
3.10658e-40
2.18668e-39
4.63837e-39
5.45985e-39
2.04109e-38
7.04186e-37
1.2727e-35
1.37739e-33
-1.79022e-90
4.6456e-76
-6.89456e-73
-1.34866e-68
-1.28408e-67
1.21898e-66
2.30131e-64
2.79775e-62
2.7385e-60
2.42137e-58
1.9631e-56
1.47791e-54
1.02387e-52
5.32149e-49
2.85697e-45
2.63771e-43
3.21102e-42
9.66373e-42
1.39939e-41
9.09847e-41
3.96593e-39
1.15656e-37
1.00866e-35
1.21872e-94
-2.9409e-79
-2.2e-76
-1.16278e-73
7.41859e-74
1.4403e-71
3.3172e-69
5.01931e-67
6.31659e-65
7.17479e-63
7.46761e-61
7.21397e-59
6.5333e-57
5.5366e-55
3.28104e-51
1.29773e-47
8.23972e-46
8.87177e-45
3.27734e-44
3.41831e-43
1.78313e-41
6.80197e-40
5.02607e-38
-2.92735e-86
-2.80169e-83
-1.27052e-80
2.53012e-81
8.67229e-79
2.37941e-76
7.77185e-74
1.59577e-71
2.82174e-69
4.49548e-67
6.55083e-65
8.84483e-63
1.11917e-60
1.33455e-58
1.52124e-56
3.13621e-53
1.09457e-49
7.37686e-48
8.97297e-47
9.11699e-46
6.04439e-44
2.54702e-42
6.83186e-41
3.39985e-107
8.27602e-94
1.02333e-90
8.00369e-88
4.61372e-85
-3.50965e-81
1.02807e-79
3.99967e-77
1.18645e-74
3.16564e-72
7.71286e-70
1.7377e-67
3.66072e-65
7.28415e-63
1.36927e-60
1.57387e-57
3.54516e-53
8.05428e-51
1.85476e-49
1.525e-48
1.36319e-46
8.14707e-45
1.70882e-43
-1.2938e-114
2.28928e-106
8.84627e-103
-1.11026e-94
-4.70878e-88
-1.58439e-88
5.83977e-90
5.83754e-87
7.30041e-84
5.89479e-81
4.32125e-78
2.92852e-75
1.85423e-72
1.10726e-69
6.28587e-67
7.14625e-64
4.51136e-58
3.76751e-54
2.43285e-52
1.6963e-51
1.41912e-49
1.58175e-47
5.20976e-46
0
0
-1.24197e-107
-1.37161e-101
-6.68171e-100
0
-2.04699e-100
0
-3.74436e-97
-1.5464e-96
0
-7.59332e-91
-7.77556e-88
-3.98109e-85
-4.07663e-82
-2.45278e-79
4.56708e-70
7.31439e-61
2.29127e-56
1.28824e-54
4.21992e-54
9.56264e-51
1.28046e-48
1
0.897415
0.00553135
0.00373758
0.999857
0.987496
0.977115
0.643666
0.999907
0.999833
0.998594
0.993944
0.999834
0.998595
0.993944
0.98809
0.213208
0.352294
0.813683
0.984003
0.00266008
0.00478415
0.0688816
0.575733
0.000356189
0.000735985
0.00160176
0.0845473
5.3138e-05
0.000115059
0.000194806
0.00160394
8.42683e-06
1.70463e-05
2.34805e-05
0.000194922
3.851e-06
3.21355e-06
3.75801e-06
2.34807e-05
3.15052e-06
1.44459e-06
1.82978e-06
3.75801e-06
3.72231e-06
1.39628e-06
1.15095e-06
1.82978e-06
2.57393e-07
3.89773e-07
4.3351e-07
1.63344e-06
8.81659e-07
4.33655e-07
0.000289228
8.41911e-06
5.89286e-07
2.17011e-06
0.000523398
0.00105222
6.84104e-07
1.33043e-05
8.98835e-05
0.000532915
7.21064e-07
7.02305e-06
2.29251e-05
0.000156579
2.84663e-07
1.75645e-06
7.03461e-06
1.79707e-05
5.32041e-08
2.65216e-07
1.19611e-06
2.41245e-06
5.09454e-09
4.46747e-08
2.32225e-07
2.90968e-07
4.9525e-10
3.87013e-09
1.79231e-08
2.93821e-08
4.17995e-11
1.92754e-10
9.44728e-10
2.49577e-09
8.06665e-12
1.92426e-11
6.88258e-11
1.81086e-10
4.89772e-13
3.49917e-12
1.07454e-11
1.16498e-11
1.86408e-14
1.61615e-13
6.91077e-13
6.8147e-13
5.83369e-16
4.18007e-15
3.09811e-14
3.49049e-14
1.72517e-17
1.43467e-16
1.24494e-15
1.56275e-15
5.0223e-19
4.6509e-18
4.45691e-17
6.15229e-17
1.24367e-20
1.33114e-19
1.40404e-18
2.1435e-18
2.24016e-22
2.85743e-21
3.80474e-20
6.65485e-20
4.88539e-24
3.86418e-23
8.52209e-22
1.85321e-21
9.31466e-26
8.13512e-25
1.45565e-23
4.65577e-23
1.56154e-27
1.5222e-26
1.58027e-25
1.06113e-24
2.31404e-29
2.54666e-28
2.50445e-27
2.20576e-26
3.04103e-31
3.82404e-30
4.25875e-29
4.20205e-28
3.54578e-33
5.1637e-32
6.59136e-31
7.36688e-30
3.6585e-35
6.27028e-34
9.30272e-33
1.1931e-31
3.31878e-37
6.82966e-36
1.19722e-34
1.78778e-33
2.61738e-39
6.63446e-38
1.40104e-36
2.47453e-35
1.77249e-41
5.71453e-40
1.48572e-38
3.15104e-37
9.59737e-44
4.23559e-42
1.40836e-40
3.65383e-39
5.20976e-46
9.59737e-44
4.23559e-42
1.40836e-40
1.09094e-11
1.31766e-09
1.02406e-09
7.16514e-11
1.35617e-12
7.22236e-14
7.19412e-15
6.57973e-18
7.97678e-20
1.40272e-21
7.87901e-22
1.89464e-23
2.77812e-25
3.55799e-27
3.47516e-29
2.23988e-31
7.27709e-34
2.4603e-37
9.27587e-43
0.00609781
5.89045e-07
7.7227e-08
4.89169e-09
6.90586e-11
1.33155e-12
6.4311e-14
5.54881e-16
6.57973e-18
7.96433e-20
1.20008e-21
1.16059e-22
1.51138e-24
1.67127e-26
1.62859e-28
1.22221e-30
6.11717e-33
1.54818e-35
4.50592e-39
0.405278
9.10421e-05
4.90462e-06
2.0847e-07
4.66326e-09
1.00518e-10
2.29827e-12
4.52303e-14
6.37274e-16
7.37378e-18
3.28017e-19
3.57255e-21
2.84415e-23
1.77605e-25
1.33801e-27
7.32672e-30
2.76764e-32
5.62675e-35
1.94482e-38
0.911028
0.135381
0.000178499
5.38655e-06
1.57778e-07
3.9986e-09
1.1266e-10
2.09804e-12
4.28944e-14
1.69949e-15
2.42865e-17
2.44131e-19
1.984e-21
1.71405e-23
1.32801e-25
7.77545e-28
3.05011e-30
6.0011e-33
-3.98534e-38
0.943157
0.378553
0.00687286
9.91001e-05
2.98065e-06
9.6056e-08
2.54443e-09
6.74697e-11
1.63741e-12
3.3371e-14
9.17866e-16
1.08045e-17
9.21104e-20
9.45007e-22
7.91497e-24
4.97568e-26
2.09148e-28
4.39177e-31
-9.1224e-47
0.903976
0.606723
0.0393029
0.000555314
2.63676e-05
1.00212e-06
3.41985e-08
9.67835e-10
2.33671e-11
5.78016e-13
1.18844e-14
2.27451e-16
2.207e-18
2.39719e-20
2.15474e-22
1.45005e-24
6.51391e-27
1.45914e-29
0
0.759089
0.723541
0.0908231
0.00122738
8.46803e-05
4.06983e-06
1.5622e-07
4.90314e-09
1.28897e-10
3.10612e-12
8.17526e-14
2.1316e-15
2.33696e-17
1.96954e-19
1.83313e-21
1.32144e-23
6.33691e-26
1.51625e-28
-5.2852e-46
0.603066
0.658596
0.16876
0.0016652
0.000128999
6.68355e-06
2.60529e-07
8.29296e-09
2.25518e-10
5.43963e-12
1.89779e-13
8.48218e-15
1.08584e-16
1.11093e-18
9.96785e-21
6.5332e-23
2.48328e-25
4.75867e-28
0
0.437655
0.609309
0.184957
0.00157989
0.000100695
4.03086e-06
1.33651e-07
3.96338e-09
1.08173e-10
3.1184e-12
2.96666e-13
2.91804e-14
3.85945e-16
2.52436e-18
2.02188e-20
1.2933e-22
6.4127e-25
2.04592e-27
1.7079e-30
0.318945
0.58804
0.144524
0.00111322
4.15048e-05
6.29634e-07
1.49452e-08
4.42733e-10
1.3778e-11
1.10748e-12
4.13741e-13
4.09988e-14
9.05205e-16
7.22789e-18
4.79782e-20
2.44982e-22
8.19967e-25
2.43434e-27
1.28865e-30
0.273137
0.531905
0.119152
0.000687854
4.27474e-06
1.00454e-06
1.68636e-07
7.56131e-11
7.71023e-12
3.04865e-12
4.84066e-13
9.15526e-14
3.94228e-15
3.14599e-17
1.43894e-19
2.74102e-22
1.11277e-24
3.17525e-27
5.18356e-32
0.220537
0.476269
0.116574
0.000484106
3.78307e-06
1.70122e-06
1.43723e-06
4.09337e-08
3.71658e-11
7.24377e-12
8.0711e-13
9.95387e-14
7.55271e-15
1.30798e-16
6.20674e-19
6.96511e-22
3.7774e-24
1.09593e-26
9.95099e-32
0.0380987
0.410694
0.298471
0.0103039
6.41542e-05
4.36045e-06
1.31049e-06
1.24059e-07
2.58317e-09
8.33179e-11
4.56094e-12
2.23821e-13
1.62757e-14
2.83202e-16
8.02721e-19
5.16382e-21
2.96302e-23
8.37635e-26
9.51453e-31
3.41405e-05
0.340395
0.337375
0.0831082
0.000869113
6.44607e-05
1.07922e-05
8.39847e-07
2.85338e-08
9.55814e-10
3.89348e-11
2.18634e-12
4.76814e-14
8.65733e-16
1.00346e-17
8.51677e-20
4.89718e-22
1.40243e-24
2.55517e-29
0.000539874
0.111013
0.31677
0.270367
0.0240715
0.000558013
6.21708e-05
4.74714e-06
2.63183e-07
1.0863e-08
3.64958e-10
1.16439e-11
3.02314e-13
6.4315e-15
8.25198e-17
6.46111e-19
3.61789e-21
1.0511e-23
1.87382e-27
0.00196494
0.00175279
0.12682
0.1519
0.0445646
0.000631037
6.9462e-05
5.35638e-06
3.01771e-07
1.29447e-08
4.13384e-10
1.14431e-11
3.57522e-13
1.95297e-14
3.181e-16
2.9766e-18
2.06671e-20
8.96191e-23
1.73781e-25
0.000706828
0.00101434
0.00433792
0.00804957
0.020436
0.002833
3.00452e-05
2.19354e-06
1.21144e-07
5.16258e-09
1.72488e-10
4.63496e-12
5.92351e-13
2.2787e-14
3.366e-16
3.76521e-18
3.11325e-20
1.67768e-22
4.40919e-25
0.000130228
0.000973683
0.00102304
0.00146083
0.000614137
0.000568424
1.81336e-05
4.73831e-07
2.58039e-08
1.09794e-09
3.72398e-11
1.54071e-12
2.41679e-13
6.13917e-15
8.62509e-17
1.00269e-18
8.4975e-21
4.70715e-23
1.26318e-25
3.97425e-05
0.000223241
0.000160359
0.00025711
0.000103622
1.18033e-05
1.6017e-06
8.17672e-08
3.8349e-09
1.70223e-10
7.33142e-12
1.02471e-12
3.93448e-14
7.12595e-16
1.09561e-17
1.29907e-19
1.12055e-21
6.31374e-24
1.72639e-26
2.63818e-06
1.20506e-05
2.06485e-05
3.58127e-05
1.56558e-05
1.53313e-06
1.25381e-07
8.34352e-09
4.66553e-10
2.32565e-11
3.0093e-12
1.88707e-13
3.86521e-15
7.53451e-17
1.17591e-18
1.40977e-20
1.23059e-22
7.02041e-25
1.9414e-27
1.39614e-07
5.85208e-07
2.2288e-06
4.06683e-06
1.86479e-06
1.81381e-07
1.30144e-08
7.87985e-10
4.96681e-11
5.53873e-12
4.71471e-13
1.3497e-14
3.26556e-16
6.5074e-18
1.02587e-19
1.24311e-21
1.09744e-23
6.3352e-26
1.76618e-28
9.10887e-09
5.32743e-08
2.05121e-07
3.87638e-07
1.85474e-07
1.92488e-08
1.26777e-09
6.96658e-11
4.522e-12
7.72843e-13
3.15145e-14
9.38661e-16
2.34617e-17
4.71404e-19
7.49855e-21
9.17495e-23
8.18322e-25
4.77482e-27
1.33745e-29
6.95272e-10
4.19601e-09
1.63208e-08
3.17378e-08
1.58666e-08
1.84386e-09
1.14214e-10
6.38264e-12
8.79583e-13
5.30332e-14
1.90188e-15
5.82441e-17
1.46002e-18
2.95842e-20
4.74809e-22
5.86221e-24
5.27695e-26
3.10912e-28
8.70618e-31
5.0387e-11
2.91143e-10
1.13795e-09
2.26269e-09
1.1971e-09
1.58681e-10
9.78243e-12
8.63716e-13
8.49038e-14
3.32848e-15
1.1738e-16
3.38623e-18
8.30133e-20
1.67277e-21
2.67738e-23
3.32299e-25
3.01808e-27
1.79487e-29
4.98428e-32
5.86431e-12
2.33147e-11
7.76171e-11
1.44792e-10
8.0381e-11
1.14175e-11
8.85195e-13
9.66968e-14
5.14744e-15
2.0999e-16
7.21056e-18
2.01835e-19
4.76199e-21
9.22503e-23
1.43086e-24
1.75847e-26
1.59955e-28
9.5525e-31
2.61466e-33
1.08755e-12
4.81165e-12
5.45175e-12
9.82855e-12
5.43315e-12
8.1514e-13
8.48818e-14
6.23014e-15
3.07844e-16
1.25843e-17
4.26999e-19
1.17868e-20
2.72841e-22
5.18678e-24
7.91574e-26
9.55601e-28
8.55987e-30
5.07529e-32
1.37214e-34
4.43314e-14
4.22065e-13
9.15202e-13
6.39673e-13
3.087e-13
5.27455e-14
5.27441e-15
3.42396e-16
1.75813e-17
7.19315e-19
2.42764e-20
6.64415e-22
1.52372e-23
2.87118e-25
4.34622e-27
5.2052e-29
4.63627e-31
2.74957e-33
7.33685e-36
1.42711e-15
1.78012e-14
5.67409e-14
5.42791e-14
2.07115e-14
2.87909e-15
2.67803e-16
1.82777e-17
9.53701e-19
3.9292e-20
1.32754e-21
3.62438e-23
8.27416e-25
1.551e-26
2.33617e-28
2.78808e-30
2.47948e-32
1.47592e-34
3.87714e-37
4.51965e-17
6.69562e-16
2.17172e-15
2.53344e-15
1.01444e-15
1.36689e-16
1.31438e-17
9.25499e-19
4.92664e-20
2.05535e-21
6.99124e-23
1.91397e-24
4.36995e-26
8.1817e-28
1.23029e-29
1.46626e-31
1.30363e-33
7.7993e-36
2.01274e-38
1.34788e-18
2.31925e-17
8.22545e-17
9.65114e-17
4.30553e-17
6.1097e-18
6.12808e-19
4.45819e-20
2.4316e-21
1.03205e-22
3.55091e-24
9.79146e-26
2.24492e-27
4.2127e-29
6.34219e-31
7.56466e-33
6.73466e-35
4.0554e-37
1.02616e-39
3.56645e-20
7.29809e-19
2.89415e-18
3.52881e-18
1.74272e-18
2.59838e-19
2.72045e-20
2.05108e-21
1.15043e-22
4.98706e-24
1.7425e-25
4.85786e-27
1.1223e-28
2.11721e-30
3.19921e-32
3.82623e-34
3.41546e-36
2.07248e-38
5.13368e-41
8.33862e-22
2.09379e-20
9.42812e-20
1.20488e-19
6.66855e-20
1.053e-20
1.15451e-21
9.04648e-23
5.23428e-24
2.32513e-25
8.27777e-27
2.34068e-28
5.46508e-30
1.03911e-31
1.5793e-33
1.89703e-35
1.69974e-37
1.04021e-39
2.51932e-42
1.67158e-23
5.50524e-22
2.85625e-21
3.8544e-21
2.41855e-21
4.08001e-22
4.7012e-23
3.83874e-24
2.29748e-25
1.04876e-26
3.81512e-28
1.09716e-29
2.59537e-31
4.98454e-33
7.63368e-35
9.22201e-37
8.30152e-39
5.12636e-41
1.21303e-43
2.76742e-25
1.33174e-23
8.08337e-23
1.16029e-22
8.34398e-23
1.51635e-23
1.84316e-24
1.57246e-25
9.75889e-27
4.58904e-28
1.70992e-29
5.01275e-31
1.2039e-32
2.3398e-34
3.61623e-36
4.39873e-38
3.98108e-40
2.48111e-42
5.73416e-45
3.82833e-27
2.97461e-25
2.14129e-24
3.31076e-24
2.74396e-24
5.42265e-25
6.98072e-26
6.23863e-27
4.02404e-28
1.95355e-29
7.47146e-31
2.23714e-32
5.46477e-34
1.07645e-35
1.68108e-37
2.06087e-39
1.87634e-41
1.18014e-43
2.66393e-46
7.57054e-29
6.1099e-27
5.17986e-26
9.35434e-26
8.43286e-26
1.87214e-26
2.56248e-27
2.40522e-28
1.61591e-29
8.11451e-31
3.19124e-32
9.77597e-34
2.43248e-35
4.86256e-37
7.6812e-39
9.49762e-41
8.70261e-43
5.52255e-45
1.21797e-47
1.40349e-30
1.172e-28
1.18456e-27
2.52279e-27
2.49615e-27
6.26131e-28
9.14831e-29
9.04185e-30
6.34e-31
3.29893e-32
1.33619e-33
4.19366e-35
1.06423e-36
2.16124e-38
3.45624e-40
4.31298e-42
3.97847e-44
2.54618e-46
5.48976e-49
2.44734e-32
2.10963e-30
2.57321e-29
6.51605e-29
7.16556e-29
2.03635e-29
3.18813e-30
3.32616e-31
2.43871e-32
1.31691e-33
5.50095e-35
1.77091e-36
4.58812e-38
9.47375e-40
1.53479e-41
1.93381e-43
1.79613e-45
1.15861e-47
2.44422e-50
4.01941e-34
3.57183e-32
5.30344e-31
1.626e-30
2.00216e-30
6.46727e-31
1.0888e-31
1.20181e-32
9.22937e-34
5.17924e-35
2.23371e-36
7.38311e-38
1.95446e-39
4.10601e-41
6.74203e-43
8.58011e-45
8.02504e-47
5.21396e-49
1.07736e-51
6.21608e-36
5.92636e-34
1.0424e-32
3.92694e-32
5.46518e-32
2.01389e-32
3.66014e-33
4.28291e-34
3.45003e-35
2.01416e-36
8.97678e-38
3.04864e-39
8.2509e-41
1.76444e-42
2.93743e-44
3.77656e-46
3.55701e-48
2.32574e-50
4.7126e-53
9.06671e-38
9.49948e-36
1.95156e-34
8.66802e-34
1.33473e-33
5.62223e-34
1.14804e-34
1.46749e-35
1.25942e-36
7.72601e-38
3.58119e-39
1.25056e-40
3.46232e-42
7.54026e-44
1.27319e-45
1.65407e-47
1.56894e-49
1.03158e-51
2.0526e-54
3.65383e-39
9.06671e-38
4.26335e-36
6.05332e-35
3.46941e-34
6.61399e-35
7.91174e-36
6.54869e-37
4.00365e-38
1.86112e-39
7.01717e-41
2.52812e-42
7.18207e-44
1.59725e-45
2.74224e-47
3.60817e-49
3.45415e-51
2.28857e-53
4.48428e-56
)
;

boundaryField
{
    leftWall
    {
        type            zeroGradient;
    }
    rightWall
    {
        type            zeroGradient;
    }
    lowerWall
    {
        type            zeroGradient;
    }
    atmosphere
    {
        type            inletOutlet;
        inletValue      uniform 0;
        value           nonuniform List<scalar> 
46
(
0
0
0
0
0
0
0
0
0
0
0
0
0
0
0
0
0
0
0
0
0
0
1.28046e-48
5.20976e-46
9.59737e-44
4.23559e-42
1.40836e-40
3.65383e-39
9.06671e-38
4.26335e-36
6.05332e-35
3.46941e-34
6.61399e-35
7.91174e-36
6.54869e-37
4.00365e-38
1.86112e-39
7.01717e-41
2.52812e-42
7.18207e-44
1.59725e-45
2.74224e-47
3.60817e-49
3.45415e-51
2.28857e-53
4.48428e-56
)
;
    }
    defaultFaces
    {
        type            empty;
    }
}


// ************************************************************************* //
