/*--------------------------------*- C++ -*----------------------------------*\
| =========                 |                                                 |
| \\      /  F ield         | OpenFOAM: The Open Source CFD Toolbox           |
|  \\    /   O peration     | Version:  5.x                                   |
|   \\  /    A nd           | Web:      www.OpenFOAM.org                      |
|    \\/     M anipulation  |                                                 |
\*---------------------------------------------------------------------------*/
FoamFile
{
    version     2.0;
    format      ascii;
    class       volScalarField;
    location    "0.2";
    object      p;
}
// * * * * * * * * * * * * * * * * * * * * * * * * * * * * * * * * * * * * * //

dimensions      [1 -1 -2 0 0 0 0];

internalField   nonuniform List<scalar> 
2268
(
2106.01
2113.91
2116.81
2115.83
2112.88
2109.63
2106.73
2104.39
2102.81
2102.38
2103.78
2108.23
2117.64
2134.8
2163.66
2210.09
2280.28
2377.85
2500.71
2630.92
2731.15
2755.49
2800.01
2045.8
2053.61
2056.42
2055.39
2052.43
2049.15
2046.19
2043.75
2042.03
2041.4
2042.56
2046.69
2055.69
2072.3
2100.26
2143.82
2207.91
2298.37
2416.28
2549.16
2660
2686.78
2753.88
1984.23
1991.87
1994.53
1993.39
1990.39
1987.05
1983.97
1981.33
1979.31
1978.29
1978.94
1982.45
1990.63
2006.14
2032.54
2074.06
2135.52
2219.93
2327.05
2448.07
2567.19
2640.66
2746.65
1921.34
1928.74
1931.15
1929.84
1926.77
1923.34
1920.07
1917.12
1914.66
1913.05
1912.94
1915.49
1922.44
1936.35
1960.6
1999.35
2056.96
2135.98
2235.7
2347.56
2467
2577.43
2713.68
1857.14
1864.25
1866.34
1864.79
1861.61
1858.05
1854.53
1851.15
1848.08
1845.66
1844.52
1845.77
1851.07
1862.81
1884.26
1919.41
1972.37
2045.6
2139.04
2245.71
2362.02
2481.52
2628.1
1791.68
1798.47
1800.15
1798.3
1794.97
1791.23
1787.36
1783.41
1779.56
1776.1
1773.66
1773.24
1776.4
1785.37
1803.26
1833.91
1881.41
1948.14
2034.57
2135.37
2244.58
2353.9
2485.48
1725.03
1731.46
1732.6
1730.38
1726.88
1722.91
1718.59
1713.95
1709.12
1704.42
1700.38
1697.93
1698.48
1704.05
1717.53
1742.63
1783.4
1842.41
1920.33
2012.15
2107.92
2190.91
2252.58
1657.26
1663.21
1663.69
1661.05
1657.36
1653.12
1648.26
1642.78
1636.82
1630.66
1624.78
1620
1617.52
1619.15
1627.46
1645.95
1678.55
1727.87
1795.05
1873.81
1947.85
1993.64
1877.12
5.2235
5.20695
5.19088
5.17454
5.15482
5.13081
5.10109
5.0654
5.02451
4.98008
4.93403
4.88837
4.84493
4.80525
4.77057
4.74183
4.71975
4.70477
4.69726
5.16747
5.14824
5.13197
5.11623
5.0967
5.07292
5.04326
5.00743
4.96627
4.92149
4.87509
4.82911
4.78539
4.74548
4.71063
4.68176
4.6596
4.64456
4.63702
5.11329
5.09
5.07326
5.05851
5.03935
5.01605
4.9865
4.9504
4.90869
4.86321
4.8161
4.76945
4.72515
4.6848
4.64958
4.62045
4.59811
4.58296
4.57536
5.06254
5.03191
5.01463
5.00102
4.98273
4.96024
4.93087
4.89435
4.85178
4.80523
4.75702
4.70936
4.6642
4.62315
4.58741
4.55791
4.53529
4.51997
4.51228
5.01527
4.97307
4.95585
4.94378
4.92684
4.9056
4.87649
4.83935
4.79558
4.74755
4.69784
4.64881
4.60251
4.56054
4.52411
4.49408
4.4711
4.45555
4.44775
4.97346
4.91224
4.89659
4.88671
4.87173
4.85227
4.82351
4.78552
4.74013
4.69016
4.63852
4.58778
4.54004
4.49691
4.4596
4.42893
4.40552
4.3897
4.38177
4.93863
4.84586
4.83667
4.82936
4.81779
4.80049
4.77212
4.73297
4.68548
4.63305
4.57903
4.52619
4.47671
4.4322
4.39386
4.36245
4.33853
4.3224
4.31431
4.9152
4.77032
4.77622
4.77223
4.76499
4.75054
4.72261
4.68188
4.63169
4.57622
4.51931
4.46396
4.41244
4.36635
4.32683
4.29459
4.27009
4.25361
4.24535
1549.57
1554.58
1554.05
1550.71
1546.57
1541.72
1535.8
1528.75
1520.69
1511.84
1502.55
1493.4
1485.31
1479.6
1478.29
1484.53
1502.3
1532.92
1579.27
1629.41
1649.95
1583.39
1010.08
1398.55
1402.23
1400.21
1395.74
1390.56
1384.23
1376.13
1366.08
1354.11
1340.22
1324.46
1306.94
1287.8
1267.13
1245.73
1226.94
1217.38
1218.96
1223.24
1226.09
1199.07
1094.31
788.867
1243.86
1245.98
1242.24
1236.49
1229.92
1221.56
1210.58
1196.72
1179.82
1159.55
1135.59
1107.17
1073.24
1031.82
981.043
922.195
865.451
811.306
775.407
723.806
671.419
645.609
591.107
1086.26
1086.67
1081.15
1073.99
1065.66
1054.7
1040.2
1021.75
998.884
970.897
936.957
895.086
843.621
776.686
683.938
560.66
418.174
233.489
70.8065
46.725
51.2899
92.2628
164.237
926.544
925.176
917.956
909.28
898.84
884.825
866.269
842.586
812.901
776.266
731.256
675.437
606.922
507.394
355.603
177.982
56.0406
9.48961
-2.77362
-5.2608
-3.57399
-0.37659
6.12969
765.444
762.222
753.49
743.249
730.457
713.13
690.292
661.124
624.547
579.28
523.539
453.78
362.018
223.825
71.8621
10.7285
-2.7913
-5.04675
-5.57966
-5.98896
-6.0776
-6.3599
-6.89731
604.024
598.771
588.845
577.179
562.12
541.675
514.832
480.665
438.007
383.552
315.376
225.714
119.634
25.6197
-0.365073
-4.12539
-5.30527
-5.86857
-6.14969
-6.46457
-6.89866
-7.47832
-8.11552
444.172
437.137
426.526
413.501
396.449
373.325
342.592
303.295
254.105
188.643
112.503
35.0445
2.79652
-4.33504
-4.26346
-5.10843
-5.81843
-6.23934
-6.53854
-6.91382
-7.43561
-8.04568
-8.6116
285.839
277.398
266.358
251.285
232.009
206.54
172.216
128.896
84.0387
32.8532
7.28449
-4.8848
-5.12558
-4.67796
-4.64575
-5.39026
-6.26753
-6.64119
-6.85644
-7.17063
-7.66636
-8.23508
-8.69047
130.427
117.989
108.408
94.9044
78.697
60.1514
36.7758
16.2506
2.76519
-4.1952
-4.86812
-4.8437
-4.98683
-4.94988
-4.92355
-5.72653
-6.7285
-6.93089
-7.06622
-7.32688
-7.74707
-8.19633
-8.54496
24.1955
12.8048
12.0785
8.5862
3.8527
-1.03954
-3.37329
-3.70034
-4.04132
-4.33769
-4.78934
-5.12508
-5.33564
-5.32806
-5.31296
-6.09274
-7.02716
-7.13176
-7.20672
-7.4134
-7.74881
-8.1054
-8.41834
-3.45098
-3.44757
-3.48836
-3.55589
-3.64913
-3.76031
-3.78499
-3.92179
-4.18768
-4.56125
-5.02686
-5.50667
-5.87198
-5.91638
-5.87613
-6.33327
-7.19575
-7.28016
-7.27984
-7.44347
-7.72302
-8.04511
-8.38116
-3.58151
-3.58314
-3.61879
-3.67289
-3.7436
-3.83151
-3.9252
-4.08086
-4.35188
-4.77712
-5.33773
-5.9986
-6.57142
-6.64523
-6.46882
-6.67667
-7.32733
-7.3324
-7.28371
-7.42208
-7.66757
-7.98644
-8.3863
-3.72028
-3.72769
-3.75589
-3.80178
-3.86271
-3.94255
-4.05188
-4.22207
-4.51149
-4.97783
-5.64127
-6.50991
-7.27699
-7.29571
-7.04181
-7.12328
-7.43315
-7.27569
-7.23335
-7.34875
-7.57141
-7.89768
-8.35765
-3.85311
-3.8699
-3.89151
-3.92967
-3.98413
-4.05957
-4.16907
-4.33854
-4.63248
-5.11166
-5.80034
-6.73961
-7.69336
-7.56079
-7.37905
-7.39014
-7.33131
-7.16415
-7.13325
-7.23366
-7.4375
-7.75711
-8.24587
-3.97673
-3.99557
-4.01495
-4.04952
-4.09961
-4.17067
-4.27355
-4.42766
-4.70128
-5.14899
-5.79449
-6.67758
-7.47729
-7.53675
-7.44328
-7.30284
-7.10888
-6.98098
-6.98315
-7.07829
-7.26149
-7.55091
-7.99547
-4.09276
-4.1096
-4.12752
-4.15984
-4.20635
-4.27211
-4.36422
-4.4997
-4.72908
-5.101
-5.62914
-6.28563
-6.85547
-7.08524
-7.10602
-6.99116
-6.83251
-6.76383
-6.79299
-6.88219
-7.03553
-7.26863
-7.61513
-4.19985
-4.21207
-4.23064
-4.26055
-4.3037
-4.36373
-4.44531
-4.55981
-4.73765
-5.01583
-5.40492
-5.84815
-6.22819
-6.46801
-6.56211
-6.54481
-6.50609
-6.52533
-6.56953
-6.64706
-6.76194
-6.9219
-7.14092
-4.2968
-4.30643
-4.32436
-4.35224
-4.39213
-4.4468
-4.51931
-4.61591
-4.75216
-4.94965
-5.21616
-5.51722
-5.78739
-5.98244
-6.09582
-6.14891
-6.20621
-6.2578
-6.31962
-6.38623
-6.46017
-6.54549
-6.63906
-4.38499
-4.39337
-4.41004
-4.43586
-4.47251
-4.52216
-4.58705
-4.6706
-4.78004
-4.92475
-5.10681
-5.3108
-5.50975
-5.67898
-5.80585
-5.89757
-5.97257
-6.03168
-6.08223
-6.12392
-6.15607
-6.17537
-6.16811
-4.46612
-4.47362
-4.48888
-4.51253
-4.54585
-4.59049
-4.64822
-4.72117
-4.81275
-4.92668
-5.06271
-5.21297
-5.36336
-5.49936
-5.61273
-5.7029
-5.77254
-5.82319
-5.85775
-5.87431
-5.87013
-5.83836
-5.7654
-4.54156
-4.54831
-4.56212
-4.5835
-4.61336
-4.65291
-4.70344
-4.76629
-4.84302
-4.93481
-5.04043
-5.15478
-5.26973
-5.37659
-5.46921
-5.54453
-5.60091
-5.63784
-5.65481
-5.64882
-5.61586
-5.54814
-5.43199
-4.61249
-4.61853
-4.63089
-4.64994
-4.67631
-4.71082
-4.75432
-4.80756
-4.87115
-4.9451
-5.02797
-5.11617
-5.20438
-5.28687
-5.35881
-5.41642
-5.45699
-5.4787
-5.47914
-5.45464
-5.40086
-5.31069
-5.17309
-4.6799
-4.68526
-4.69617
-4.71289
-4.73582
-4.76548
-4.80235
-4.8468
-4.89891
-4.95824
-5.02329
-5.09122
-5.15823
-5.22032
-5.27359
-5.3144
-5.33964
-5.34685
-5.33307
-5.29458
-5.22718
-5.12511
-4.98043
-4.74459
-4.74927
-4.75876
-4.77319
-4.79281
-4.81788
-4.84864
-4.88516
-4.92726
-4.97425
-5.02474
-5.07645
-5.12649
-5.17172
-5.20898
-5.23504
-5.24689
-5.24177
-5.21674
-5.16847
-5.09336
-4.98695
-4.84397
-4.80718
-4.81118
-4.81929
-4.83155
-4.84805
-4.86887
-4.89407
-4.92354
-4.95694
-4.99356
-5.03208
-5.07063
-5.10689
-5.13831
-5.16224
-5.17591
-5.17664
-5.16178
-5.1286
-5.07427
-4.99588
-4.89018
-4.7539
-4.86813
-4.87148
-4.8783
-4.88853
-4.90217
-4.91914
-4.93938
-4.96267
-4.98861
-5.01648
-5.04512
-5.07294
-5.09801
-5.11823
-5.13135
-5.13503
-5.12694
-5.10477
-5.06615
-5.00873
-4.93027
-4.8285
-4.70156
-4.92787
-4.93063
-4.93624
-4.94462
-4.95565
-4.96921
-4.98511
-5.00306
-5.02264
-5.04316
-5.06363
-5.08269
-5.09875
-5.11
-5.11455
-5.11044
-5.09573
-5.06844
-5.02659
-4.96834
-4.89203
-4.79613
-4.67968
-4.98678
-4.989
-4.99351
-5.00021
-5.00893
-5.01949
-5.03164
-5.04505
-5.05928
-5.07371
-5.08746
-5.09942
-5.10826
-5.11245
-5.11038
-5.10043
-5.08099
-5.05043
-5.00718
-4.94978
-4.87706
-4.78813
-4.68244
-5.04522
-5.04696
-5.05047
-5.05565
-5.06232
-5.07028
-5.07923
-5.08882
-5.09862
-5.10806
-5.11639
-5.12267
-5.12581
-5.12454
-5.11752
-5.1034
-5.08084
-5.04855
-5.00531
-4.95003
-4.88188
-4.80033
-4.70519
-5.10348
-5.10479
-5.1074
-5.11124
-5.11611
-5.12181
-5.12805
-5.13447
-5.14065
-5.14608
-5.15009
-5.15193
-5.15067
-5.1453
-5.13472
-5.11781
-5.09348
-5.06073
-5.0186
-4.96631
-4.90328
-4.82922
-4.74419
-5.1618
-5.16272
-5.16454
-5.16718
-5.17048
-5.17425
-5.17821
-5.18202
-5.18529
-5.18754
-5.18821
-5.18666
-5.18214
-5.17383
-5.16084
-5.14228
-5.11727
-5.08503
-5.04484
-4.99611
-4.9385
-4.87187
-4.79638
-5.22034
-5.22092
-5.22204
-5.22365
-5.22561
-5.22774
-5.22979
-5.23147
-5.23242
-5.2322
-5.23035
-5.22632
-5.2195
-5.20923
-5.19481
-5.17553
-5.15071
-5.11972
-5.08205
-5.0373
-4.98523
-4.92583
-4.8593
-5.27923
-5.27952
-5.28005
-5.28079
-5.28161
-5.28237
-5.28286
-5.28282
-5.28193
-5.27984
-5.27614
-5.27037
-5.26204
-5.25063
-5.23557
-5.21634
-5.19239
-5.16325
-5.12855
-5.08802
-5.04152
-4.9891
-4.93097
-5.33857
-5.33862
-5.33867
-5.33868
-5.33857
-5.3382
-5.33743
-5.33603
-5.33373
-5.33024
-5.32524
-5.31834
-5.30914
-5.29724
-5.28221
-5.26363
-5.24109
-5.21425
-5.18284
-5.14669
-5.10572
-5.05999
-5.00976
-5.39842
-5.39826
-5.39791
-5.39735
-5.39649
-5.39524
-5.39348
-5.39103
-5.38769
-5.38322
-5.37736
-5.36981
-5.36026
-5.3484
-5.3339
-5.31644
-5.29574
-5.27153
-5.24364
-5.21195
-5.17644
-5.13716
-5.09439
-5.45877
-5.45846
-5.4578
-5.45679
-5.45535
-5.45344
-5.45094
-5.44772
-5.44365
-5.43854
-5.43219
-5.42439
-5.4149
-5.40348
-5.38991
-5.37395
-5.3554
-5.33407
-5.30985
-5.28269
-5.25258
-5.21961
-5.18383
-5.51967
-5.51925
-5.51836
-5.51701
-5.51515
-5.51274
-5.5097
-5.50597
-5.50143
-5.49597
-5.48944
-5.4817
-5.47259
-5.46195
-5.44961
-5.43542
-5.41924
-5.40096
-5.38053
-5.3579
-5.3331
-5.3062
-5.27719
-5.58124
-5.58076
-5.57969
-5.57809
-5.57593
-5.57316
-5.56976
-5.5657
-5.5609
-5.55531
-5.54883
-5.5414
-5.53291
-5.52328
-5.5124
-5.50018
-5.48654
-5.47144
-5.45484
-5.43676
-5.41719
-5.39618
-5.37375
-5.64382
-5.64333
-5.64214
-5.64037
-5.63798
-5.63496
-5.63133
-5.62706
-5.62215
-5.61657
-5.61031
-5.60333
-5.59562
-5.58713
-5.57783
-5.56769
-5.55669
-5.54482
-5.53209
-5.51851
-5.50412
-5.48892
-5.4729
-5.70697
-5.7065
-5.70526
-5.70338
-5.70084
-5.69767
-5.6939
-5.68955
-5.68465
-5.67922
-5.67331
-5.66693
-5.66012
-5.65289
-5.64528
-5.63731
-5.62901
-5.62041
-5.61155
-5.60247
-5.59321
-5.58378
-5.57409
-5.76704
-5.76682
-5.76559
-5.76366
-5.76107
-5.75787
-5.75413
-5.74989
-5.74523
-5.74023
-5.73494
-5.72946
-5.72387
-5.71824
-5.71265
-5.70717
-5.70187
-5.69682
-5.69207
-5.68769
-5.68373
-5.68019
-5.6769
-55.3856
-7.43215
0.224317
3.58225
306.594
65.6268
-47.3214
-25.1977
413.358
245.719
152.878
88.2258
165.226
130.836
101.783
96.5121
14.6042
20.3415
21.1266
9.59381
-7.12179
-7.458
-6.83049
-18.8775
-8.35937
-8.41747
-7.92779
-6.77186
-8.81635
-8.87452
-9.04438
-8.15401
-8.87735
-8.97101
-9.23743
-9.24522
-8.73944
-8.86069
-9.08983
-9.32615
-8.66053
-8.82108
-9.02152
-9.26247
-8.66652
-8.8446
-8.99272
-9.12722
-8.75383
-8.96899
-9.10144
-9.16888
-8.85599
-9.13177
-9.33843
-9.48151
-8.75231
-9.06695
-9.35383
-9.64575
-8.46712
-8.78868
-9.09613
-9.48801
-7.9784
-8.24895
-8.55276
-8.94239
-7.34426
-7.48959
-7.67481
-7.94035
-6.69645
-6.72052
-6.74798
-6.80783
-6.12744
-6.08077
-6.0206
-5.9506
-5.66197
-5.57464
-5.46809
-5.34406
-5.29916
-5.19501
-5.07263
-4.93281
-5.02993
-4.92247
-4.79983
-4.66286
-4.8387
-4.7354
-4.62009
-4.49371
-4.70997
-4.61439
-4.50953
-4.39629
-4.6305
-4.54392
-4.45026
-4.35028
-4.58969
-4.51221
-4.42933
-4.34168
-4.57928
-4.51044
-4.43748
-4.36091
-4.59293
-4.53207
-4.46804
-4.40125
-4.62581
-4.5722
-4.51612
-4.45792
-4.67412
-4.62705
-4.57804
-4.52736
-4.73483
-4.69366
-4.65095
-4.60691
-4.80555
-4.7697
-4.73263
-4.6945
-4.88435
-4.85336
-4.82138
-4.78855
-4.96973
-4.94318
-4.91585
-4.88786
-5.06049
-5.03806
-5.01502
-4.99147
-5.15568
-5.1371
-5.11806
-5.09863
-5.2545
-5.23956
-5.22429
-5.20872
-5.3563
-5.34484
-5.33315
-5.32125
-5.46052
-5.45242
-5.44417
-5.43579
-5.56669
-5.56186
-5.55695
-5.55198
-5.67444
-5.67283
-5.67121
-5.66957
4.897
4.61522
4.68386
4.68251
4.68413
4.67568
4.6486
4.60452
4.54899
4.48773
4.42544
4.36554
4.31037
4.2615
4.21992
4.18622
4.16074
4.14365
4.1351
4.93797
4.76008
4.55743
4.54349
4.57774
4.58688
4.56063
4.50808
4.44086
4.368
4.29563
4.2276
4.16619
4.11272
4.06785
4.03186
4.00486
3.98687
3.97789
1.52881
4.87031
4.2195
4.33123
4.48088
4.52438
4.49257
4.42284
4.33692
4.24754
4.16199
4.08397
4.01529
3.95668
3.90825
3.86988
3.84134
3.82245
3.81305
8.88078
0.401497
3.56081
4.13621
4.46055
4.51494
4.4532
4.34964
4.23508
4.12356
4.02175
3.93233
3.85586
3.792
3.74013
3.69955
3.66963
3.64994
3.64018
-13.9325
-3.80913
3.82415
4.27863
4.61496
4.57639
4.4428
4.28381
4.12939
3.99068
3.87067
3.76951
3.68562
3.61715
3.56244
3.52012
3.48919
3.46894
3.45893
-57.3742
-30.0854
3.84338
4.86461
4.7962
4.67381
4.44558
4.21097
4.01015
3.84101
3.7031
3.59172
3.50214
3.43056
3.37418
3.33098
3.29959
3.27913
3.26904
-62.9021
-67.5604
2.40055
5.57818
5.14407
4.79362
4.43347
4.11564
3.86029
3.66375
3.51244
3.39507
3.30317
3.23095
3.17461
3.13169
3.1006
3.08036
3.07039
-18.1305
-88.9627
1.61058
6.40134
5.63724
4.9198
4.37918
3.95476
3.65826
3.44686
3.29241
3.17645
3.08723
3.01765
2.96348
2.92217
2.8922
2.87266
2.86301
-8.81341
-87.8705
1.19291
7.22125
5.81277
4.86187
4.15795
3.68052
3.38043
3.18026
3.03928
2.93484
2.85435
2.79101
2.74114
2.70272
2.67464
2.65624
2.64714
-9.3778
-70.3792
1.53295
6.83886
5.15339
4.36668
3.67809
3.25664
3.01535
2.86256
2.75499
2.67273
2.60664
2.55257
2.50867
2.47412
2.44851
2.43157
2.42315
-9.46008
-48.4284
0.0480944
4.73971
3.66335
3.23938
2.8923
2.67608
2.57349
2.5064
2.44944
2.39685
2.34839
2.30503
2.26782
2.23753
2.21459
2.19923
2.19154
-8.79135
-32.5536
-3.30593
0.455459
1.46569
1.47614
1.76464
1.9794
2.10017
2.14212
2.14059
2.11741
2.08541
2.05176
2.02058
1.99415
1.9737
1.95984
1.95287
-8.6012
-18.0293
-11.05
-4.30424
-0.874166
-0.381354
0.660346
1.39683
1.69812
1.81431
1.85006
1.84527
1.82312
1.7956
1.76855
1.74502
1.72657
1.714
1.70765
-9.44829
-6.91758
-10.4904
0.513763
-1.26376
-1.28706
0.0513276
1.06763
1.44979
1.56047
1.59227
1.58603
1.56409
1.53788
1.51257
1.49077
1.47377
1.46221
1.45639
-10.6728
-7.74532
-10.7867
3.30671
0.995214
0.256797
0.735038
1.24862
1.37541
1.3783
1.3627
1.33648
1.30661
1.27788
1.25249
1.23155
1.21559
1.20487
1.1995
-10.75
-12.7855
-11.479
-3.37685
2.49552
1.64218
1.46275
1.39337
1.29089
1.19745
1.13334
1.08464
1.04529
1.01323
0.987381
0.96714
0.952175
0.9423
0.937408
-9.89507
-11.7006
-11.4747
-5.20303
1.89345
1.9485
1.57761
1.29812
1.10072
0.967334
0.879293
0.818575
0.774428
0.741322
0.716186
0.697297
0.683698
0.674874
0.670547
-8.477
-9.01441
-7.35085
-2.70195
0.774311
1.6412
1.28929
0.9901
0.802153
0.675966
0.590934
0.532446
0.490923
0.46071
0.438424
0.422069
0.4105
0.403089
0.399485
-6.87199
-6.37236
-4.84785
-2.07677
0.0788843
0.663803
0.638424
0.521512
0.415322
0.332221
0.271129
0.227002
0.195033
0.171676
0.154514
0.142006
0.133224
0.12764
0.124942
-5.75951
-5.0211
-3.72939
-2.06053
-0.787239
-0.220442
-0.0351209
0.00189286
-0.0134425
-0.0418747
-0.0695101
-0.0924426
-0.110354
-0.123998
-0.134263
-0.141836
-0.147179
-0.150572
-0.152201
-5.06965
-4.38201
-3.389
-2.26875
-1.39571
-0.884731
-0.621353
-0.497258
-0.44477
-0.424365
-0.418651
-0.418851
-0.421041
-0.423636
-0.42604
-0.428029
-0.429521
-0.430486
-0.430936
-4.64812
-4.05793
-3.30818
-2.5122
-1.8541
-1.40464
-1.12301
-0.95481
-0.856864
-0.799759
-0.766117
-0.745623
-0.732707
-0.724301
-0.718716
-0.714972
-0.712493
-0.710952
-0.710181
-4.39781
-3.90403
-3.32434
-2.73057
-2.21629
-1.82654
-1.55189
-1.36589
-1.24221
-1.16004
-1.10504
-1.06754
-1.04163
-1.02327
-1.01025
-1.00108
-0.994781
-0.990825
-0.988847
-4.25742
-3.84722
-3.38812
-2.92589
-2.51263
-2.17727
-1.92153
-1.73363
-1.59816
-1.50115
-1.43159
-1.38141
-1.34494
-1.31823
-1.29885
-1.28491
-1.27517
-1.26904
-1.26589
-4.18951
-3.84759
-3.47643
-3.10552
-2.76611
-2.47772
-2.24523
-2.06421
-1.92616
-1.82202
-1.74376
-1.68502
-1.64088
-1.60776
-1.58315
-1.56518
-1.55258
-1.54462
-1.54045
-4.17073
-3.88377
-3.5784
-3.27417
-2.99095
-2.74235
-2.53372
-2.36417
-2.22932
-2.12352
-2.04117
-1.97742
-1.92825
-1.8906
-1.86212
-1.84107
-1.8262
-1.81676
-1.81181
-4.18619
-3.94362
-3.68883
-3.43523
-3.19607
-2.98111
-2.79526
-2.63925
-2.51107
-2.40737
-2.32436
-2.25847
-2.20659
-2.16614
-2.1351
-2.11191
-2.09542
-2.08487
-2.07942
-4.22629
-4.01989
-3.80501
-3.59109
-3.38736
-3.201
-3.03617
-2.8943
-2.77473
-2.67558
-2.59439
-2.52861
-2.47589
-2.43417
-2.40176
-2.37731
-2.3598
-2.34855
-2.3428
-4.28462
-4.10807
-3.92539
-3.74342
-3.5688
-3.40689
-3.26117
-3.13326
-3.02325
-2.93018
-2.85253
-2.78855
-2.7365
-2.69477
-2.66201
-2.63709
-2.61914
-2.60754
-2.60168
-4.35679
-4.2052
-4.04904
-3.89337
-3.74309
-3.60228
-3.47382
-3.35929
-3.25916
-3.17308
-3.10014
-3.03918
-2.98894
-2.94824
-2.91598
-2.89126
-2.87335
-2.86173
-2.85592
-4.43967
-4.30923
-4.17531
-4.04171
-3.91211
-3.7897
-3.67681
-3.57491
-3.48465
-3.406
-3.33851
-3.28143
-3.23388
-3.19499
-3.16392
-3.13996
-3.12251
-3.11114
-3.1055
-4.53096
-4.41869
-4.30372
-4.18896
-4.07723
-3.971
-3.87221
-3.78215
-3.70151
-3.63048
-3.56888
-3.51625
-3.47202
-3.43554
-3.40619
-3.38343
-3.36678
-3.35591
-3.35055
-4.62892
-4.53248
-4.43393
-4.33552
-4.23943
-4.14761
-4.06163
-3.98262
-3.91127
-3.84785
-3.79236
-3.74456
-3.70406
-3.67044
-3.64323
-3.62202
-3.60644
-3.59624
-3.59126
-4.73224
-4.64979
-4.56569
-4.48168
-4.39946
-4.32058
-4.24633
-4.17765
-4.11518
-4.05926
-4.00996
-3.9672
-3.93073
-3.90027
-3.87549
-3.8561
-3.84181
-3.83243
-3.82788
-4.83993
-4.77001
-4.6988
-4.62765
-4.5579
-4.49077
-4.4273
-4.36829
-4.31432
-4.2657
-4.22258
-4.18496
-4.15269
-4.12561
-4.10348
-4.0861
-4.07327
-4.06481
-4.06075
-4.95121
-4.89266
-4.8331
-4.7736
-4.71519
-4.65883
-4.60536
-4.55544
-4.50956
-4.46804
-4.43103
-4.39857
-4.37061
-4.34704
-4.32772
-4.31249
-4.30122
-4.29378
-4.29024
-5.06546
-5.01736
-4.96849
-4.91966
-4.87167
-4.82528
-4.78115
-4.73982
-4.70169
-4.66704
-4.63602
-4.60871
-4.5851
-4.56513
-4.5487
-4.53573
-4.52611
-4.51974
-4.51675
-5.1822
-5.14381
-5.10484
-5.06592
-5.02763
-4.99057
-4.95524
-4.92206
-4.89135
-4.86336
-4.83823
-4.81602
-4.79676
-4.78043
-4.76697
-4.75631
-4.74839
-4.74314
-4.7407
-5.30101
-5.27175
-5.24209
-5.21247
-5.18332
-5.15507
-5.12809
-5.1027
-5.07915
-5.05762
-5.03825
-5.02109
-5.00617
-4.99349
-4.98301
-4.97471
-4.96853
-4.96442
-4.96256
-5.42155
-5.401
-5.38019
-5.3594
-5.33894
-5.31909
-5.30011
-5.28222
-5.2656
-5.25038
-5.23666
-5.22448
-5.21387
-5.20483
-5.19736
-5.19142
-5.187
-5.18405
-5.18277
-5.54354
-5.53138
-5.51906
-5.50677
-5.49466
-5.48291
-5.47167
-5.46106
-5.45119
-5.44214
-5.43397
-5.42671
-5.42037
-5.41497
-5.4105
-5.40694
-5.40429
-5.4025
-5.40179
-5.66679
-5.6628
-5.65876
-5.65472
-5.65075
-5.6469
-5.6432
-5.63972
-5.63647
-5.63348
-5.63078
-5.62838
-5.62629
-5.62449
-5.62301
-5.62182
-5.62095
-5.62034
-5.62012
)
;

boundaryField
{
    leftWall
    {
        type            calculated;
        value           nonuniform List<scalar> 
50
(
2106.01
2045.8
1984.23
1921.34
1857.14
1791.68
1725.03
1657.26
1549.57
1398.55
1243.86
1086.26
926.544
765.444
604.024
444.172
285.839
130.427
24.1955
-3.45098
-3.58151
-3.72028
-3.85311
-3.97673
-4.09276
-4.19985
-4.2968
-4.38499
-4.46612
-4.54156
-4.61249
-4.6799
-4.74459
-4.80718
-4.86813
-4.92787
-4.98678
-5.04522
-5.10348
-5.1618
-5.22034
-5.27923
-5.33857
-5.39842
-5.45877
-5.51967
-5.58124
-5.64382
-5.70697
-5.76704
)
;
    }
    rightWall
    {
        type            calculated;
        value           nonuniform List<scalar> 
50
(
4.69726
4.63702
4.57536
4.51228
4.44775
4.38177
4.31431
4.24535
4.1351
3.97789
3.81305
3.64018
3.45893
3.26904
3.07039
2.86301
2.64714
2.42315
2.19154
1.95287
1.70765
1.45639
1.1995
0.937408
0.670547
0.399485
0.124942
-0.152201
-0.430936
-0.710181
-0.988847
-1.26589
-1.54045
-1.81181
-2.07942
-2.3428
-2.60168
-2.85592
-3.1055
-3.35055
-3.59126
-3.82788
-4.06075
-4.29024
-4.51675
-4.7407
-4.96256
-5.18277
-5.40179
-5.62012
)
;
    }
    lowerWall
    {
        type            calculated;
        value           nonuniform List<scalar> 
62
(
2135.44
2143.34
2146.24
2145.26
2142.31
2139.06
2136.16
2133.82
2132.24
2131.81
2133.21
2137.66
2147.07
2164.23
2193.09
2239.52
2309.71
2407.28
2530.14
2660.35
2760.58
2781.55
2817.79
2800.01
2753.88
2746.65
2713.68
2628.1
2485.48
2252.58
1877.12
7.21163
48.75
0.632815
3.87858
5.2235
5.16747
5.11329
5.06254
5.01527
4.97346
4.93863
4.9152
5.25293
5.23638
5.22031
5.20397
5.18425
5.16023
5.13052
5.09482
5.05394
5.00951
4.96346
4.9178
4.87436
4.83468
4.8
4.77126
4.74918
4.7342
4.72668
)
;
    }
    atmosphere
    {
        type            calculated;
        value           nonuniform List<scalar> 
46
(
-5.79377
-5.79405
-5.79279
-5.79087
-5.78831
-5.7852
-5.78159
-5.77756
-5.77319
-5.76859
-5.76384
-5.75905
-5.75432
-5.74976
-5.74545
-5.7415
-5.73797
-5.73495
-5.73249
-5.73065
-5.72949
-5.72905
-5.72904
-5.72904
-5.72904
-5.72904
-5.72904
-5.72904
-5.72904
-5.72904
-5.72904
-5.72904
-5.72904
-5.72904
-5.72904
-5.72904
-5.72904
-5.72904
-5.72904
-5.72904
-5.72904
-5.72904
-5.72904
-5.72904
-5.72904
-5.72904
)
;
    }
    defaultFaces
    {
        type            empty;
    }
}


// ************************************************************************* //
