/*--------------------------------*- C++ -*----------------------------------*\
| =========                 |                                                 |
| \\      /  F ield         | OpenFOAM: The Open Source CFD Toolbox           |
|  \\    /   O peration     | Version:  5.x                                   |
|   \\  /    A nd           | Web:      www.OpenFOAM.org                      |
|    \\/     M anipulation  |                                                 |
\*---------------------------------------------------------------------------*/
FoamFile
{
    version     2.0;
    format      ascii;
    class       volScalarField;
    location    "0.2";
    object      p_rgh;
}
// * * * * * * * * * * * * * * * * * * * * * * * * * * * * * * * * * * * * * //

dimensions      [1 -1 -2 0 0 0 0];

internalField   nonuniform List<scalar> 
2268
(
2135.44
2143.34
2146.24
2145.26
2142.31
2139.06
2136.16
2133.82
2132.24
2131.81
2133.21
2137.66
2147.07
2164.23
2193.09
2239.52
2309.71
2407.28
2530.14
2660.35
2760.58
2781.55
2817.79
2134.09
2141.9
2144.71
2143.68
2140.72
2137.44
2134.48
2132.04
2130.32
2129.69
2130.84
2134.98
2143.98
2160.58
2188.54
2232.1
2296.19
2386.66
2504.56
2637.45
2748.29
2774.14
2837.35
2131.38
2139.02
2141.67
2140.53
2137.53
2134.19
2131.11
2128.47
2126.46
2125.44
2126.09
2129.59
2137.78
2153.29
2179.68
2221.21
2282.67
2367.08
2474.2
2595.22
2714.33
2787.81
2889.18
2127.34
2134.74
2137.16
2135.84
2132.77
2129.34
2126.08
2123.13
2120.67
2119.05
2118.95
2121.49
2128.45
2142.35
2166.6
2205.36
2262.97
2341.98
2441.7
2553.56
2673
2783.44
2917.48
2122
2129.11
2131.2
2129.65
2126.47
2122.92
2119.39
2116.01
2112.94
2110.52
2109.39
2110.64
2115.93
2127.68
2149.12
2184.27
2237.24
2310.47
2403.9
2510.58
2626.88
2746.38
2877.74
2115.41
2122.19
2123.87
2122.02
2118.69
2114.95
2111.08
2107.14
2103.28
2099.82
2097.38
2096.96
2100.12
2109.1
2126.98
2157.63
2205.13
2271.87
2358.29
2459.09
2568.3
2677.63
2725.22
2107.62
2114.04
2115.18
2112.96
2109.46
2105.49
2101.17
2096.53
2091.71
2087
2082.96
2080.52
2081.06
2086.63
2100.11
2125.21
2165.98
2224.99
2302.91
2394.73
2490.51
2573.49
2578.73
2098.71
2104.65
2105.13
2102.49
2098.8
2094.56
2089.7
2084.22
2078.26
2072.1
2066.22
2061.44
2058.96
2060.59
2068.9
2087.39
2119.99
2169.31
2236.49
2315.25
2389.29
2435.08
2318.41
5.25293
5.23638
5.22031
5.20397
5.18425
5.16023
5.13052
5.09482
5.05394
5.00951
4.96346
4.9178
4.87436
4.83468
4.8
4.77126
4.74918
4.7342
4.72668
5.25576
5.23653
5.22026
5.20451
5.18499
5.16121
5.13155
5.09572
5.05456
5.00978
4.96338
4.9174
4.87368
4.83377
4.79892
4.77005
4.74789
4.73285
4.72531
5.26044
5.23715
5.22041
5.20565
5.18649
5.1632
5.13364
5.09755
5.05584
5.01036
4.96324
4.91659
4.8723
4.83194
4.79673
4.7676
4.74526
4.73011
4.72251
5.26855
5.23792
5.22063
5.20703
5.18873
5.16625
5.13688
5.10035
5.05779
5.01124
4.96303
4.91537
4.87021
4.82916
4.79342
4.76391
4.7413
4.72597
4.71828
5.28014
5.23793
5.22071
5.20865
5.1917
5.17046
5.14136
5.10422
5.06045
5.01241
4.9627
4.91368
4.86738
4.82541
4.78897
4.75894
4.73596
4.72042
4.71262
5.29719
5.23597
5.22032
5.21044
5.19545
5.17599
5.14723
5.10924
5.06385
5.01388
4.96224
4.9115
4.86376
4.82063
4.78332
4.75266
4.72924
4.71343
4.7055
5.32121
5.22844
5.21925
5.21194
5.20037
5.18307
5.15471
5.11556
5.06806
5.01564
4.96161
4.90877
4.85929
4.81478
4.77644
4.74503
4.72112
4.70498
4.6969
5.35664
5.21176
5.21766
5.21368
5.20643
5.19198
5.16405
5.12332
5.07313
5.01766
4.96075
4.9054
4.85388
4.80779
4.76827
4.73603
4.71153
4.69505
4.68679
2083.04
2088.05
2087.51
2084.18
2080.04
2075.18
2069.27
2062.22
2054.16
2045.3
2036.02
2026.87
2018.78
2013.07
2011.76
2017.99
2035.77
2066.39
2112.74
2162.88
2183.42
2116.86
1543.56
2057.21
2060.89
2058.87
2054.4
2049.22
2042.89
2034.79
2024.74
2012.77
1998.88
1983.13
1965.6
1946.46
1925.79
1904.39
1885.6
1876.04
1877.62
1881.9
1884.75
1857.74
1752.97
1447.49
2027.72
2029.84
2026.1
2020.34
2013.78
2005.42
1994.44
1980.58
1963.67
1943.41
1919.44
1891.03
1857.09
1815.67
1764.89
1706.04
1649.28
1595.14
1558.6
1507.66
1455.27
1429.47
1374.95
1995.31
1995.72
1990.2
1983.04
1974.71
1963.75
1949.25
1930.8
1907.93
1879.95
1846.01
1804.14
1752.67
1685.71
1592.87
1469.27
1324.44
1077.11
816.465
593.04
501.966
632.795
951.044
1960.79
1959.42
1952.2
1943.52
1933.08
1919.07
1900.51
1876.83
1847.15
1810.51
1765.5
1709.66
1641.07
1541.2
1387.85
1082.66
666.415
158.422
-1.36683
0.196348
1.88839
18.1363
118.21
1924.88
1921.66
1912.93
1902.69
1889.9
1872.57
1849.73
1820.56
1783.98
1738.69
1682.9
1612.92
1520.16
1360.45
833.485
126.518
-0.967914
-3.77668
-4.40235
-4.82686
-4.8794
-4.83037
-3.99974
1888.66
1883.4
1873.47
1861.81
1846.75
1826.3
1799.44
1765.25
1722.51
1667.85
1598.98
1505.25
1245.96
526.081
3.06537
-2.3639
-3.90606
-4.56306
-4.862
-5.17898
-5.6142
-6.16606
-6.66573
1854
1846.9
1836.29
1823.25
1806.17
1782.97
1752.12
1712.48
1662.34
1589.63
1388.85
877.275
200.743
-2.60384
-2.42805
-3.57244
-4.38592
-4.82582
-5.12759
-5.50332
-6.02562
-6.63737
-7.18695
1820.86
1811.67
1800.61
1785.35
1765.61
1739.33
1698.59
1588.88
1344.04
866.462
325.12
-3.17368
-3.55175
-3.12136
-2.66877
-2.1035
-4.10653
-5.08394
-5.32069
-5.63541
-6.13121
-6.70001
-7.15428
1769.67
1657.41
1643.85
1574.45
1445.71
1244.88
929.038
535.373
185.812
-2.52655
-3.20402
-3.17092
-3.30583
-3.26975
-1.45026
2.34051
-1.53887
-5.23478
-5.40493
-5.66653
-6.0868
-6.53034
-6.87937
804.051
470.674
452.43
351.505
217.4
84.1933
-1.58788
-1.91493
-2.25592
-2.55226
-3.00072
-3.33362
-3.53673
-3.52123
0.38266
2.58244
0.167436
-5.19455
-5.42057
-5.62794
-5.96339
-6.31737
-6.627
-1.54037
-1.53696
-1.57775
-1.64528
-1.73852
-1.84971
-1.87438
-2.01119
-2.27707
-2.65065
-3.11632
-3.59198
-3.94469
-3.98301
-1.09899
2.95052
0.777297
-5.18122
-5.36894
-5.53286
-5.81241
-6.1345
-6.46974
-1.5457
-1.54734
-1.58299
-1.63709
-1.7078
-1.79571
-1.8894
-2.04505
-2.31607
-2.74132
-3.3021
-3.29276
-4.17305
-4.5794
-1.75071
3.19246
0.406657
-5.19072
-5.24789
-5.38628
-5.63176
-5.95063
-6.35044
-1.55929
-1.56669
-1.59489
-1.64078
-1.70172
-1.78156
-1.89088
-2.06107
-2.35049
-2.81683
-3.25362
-2.59174
-3.34077
-5.06966
-1.66664
3.32529
-1.35071
-5.10813
-5.07235
-5.18775
-5.41041
-5.73668
-6.19629
-1.56692
-1.58371
-1.60532
-1.64348
-1.69794
-1.77338
-1.88288
-2.05234
-2.34627
-2.82541
-2.67377
-2.57466
-3.52903
-5.11427
-2.54534
2.91585
-4.94608
-4.87796
-4.84706
-4.94747
-5.15131
-5.47091
-5.95945
-1.56535
-1.58418
-1.60357
-1.63814
-1.68823
-1.75928
-1.86216
-2.01627
-2.28989
-2.73733
-2.80735
-2.30542
-3.08492
-4.16954
-1.72625
-1.57955
-4.69746
-4.56959
-4.57177
-4.6669
-4.8501
-5.1395
-5.58377
-1.55618
-1.57302
-1.59094
-1.62326
-1.66977
-1.73553
-1.82764
-1.96312
-2.1925
-2.56443
-3.09259
-3.33201
-3.16064
-3.35537
-4.49965
-4.45429
-4.29593
-4.22725
-4.25641
-4.34561
-4.49894
-4.73203
-5.07829
-1.53808
-1.5503
-1.56887
-1.59877
-1.64193
-1.70196
-1.78353
-1.89804
-2.07587
-2.35406
-2.74315
-3.18638
-3.56641
-3.80623
-3.90001
-3.88303
-3.84432
-3.86356
-3.90776
-3.98528
-4.10016
-4.26011
-4.47904
-1.50983
-1.51946
-1.5374
-1.56527
-1.60516
-1.65983
-1.73234
-1.82894
-1.96519
-2.16268
-2.42919
-2.73026
-3.00042
-3.19547
-3.30885
-3.36194
-3.41925
-3.47083
-3.53265
-3.59926
-3.6732
-3.75852
-3.85206
-1.47283
-1.48121
-1.49788
-1.52369
-1.56035
-1.61
-1.67489
-1.75844
-1.86788
-2.01259
-2.19465
-2.39864
-2.59758
-2.76682
-2.89369
-2.98541
-3.06041
-3.11951
-3.17007
-3.21176
-3.2439
-3.2632
-3.25594
-1.42877
-1.43627
-1.45153
-1.47517
-1.50849
-1.55313
-1.61086
-1.68381
-1.77539
-1.88932
-2.02535
-2.17561
-2.32601
-2.462
-2.57538
-2.66554
-2.73519
-2.78583
-2.82039
-2.83695
-2.83278
-2.80101
-2.72804
-1.37901
-1.38576
-1.39957
-1.42095
-1.45081
-1.49036
-1.54089
-1.60374
-1.68047
-1.77226
-1.87788
-1.99223
-2.10718
-2.21404
-2.30666
-2.38197
-2.43836
-2.47529
-2.49226
-2.48627
-2.45331
-2.38559
-2.26944
-1.32474
-1.33079
-1.34314
-1.36219
-1.38856
-1.42308
-1.46657
-1.51981
-1.5834
-1.65735
-1.74022
-1.82842
-1.91663
-1.99912
-2.07106
-2.12867
-2.16924
-2.19095
-2.19139
-2.1669
-2.11311
-2.02295
-1.88534
-1.26696
-1.27232
-1.28323
-1.29994
-1.32288
-1.35253
-1.38941
-1.43386
-1.48597
-1.5453
-1.61035
-1.67828
-1.74529
-1.80737
-1.86065
-1.90145
-1.9267
-1.93391
-1.92013
-1.88164
-1.81424
-1.71217
-1.56749
-1.20646
-1.21113
-1.22062
-1.23506
-1.25467
-1.27974
-1.3105
-1.34703
-1.38912
-1.43612
-1.48661
-1.53832
-1.58835
-1.63359
-1.67084
-1.6969
-1.70875
-1.70363
-1.6786
-1.63034
-1.55522
-1.44882
-1.30583
-1.14385
-1.14785
-1.15596
-1.16822
-1.18472
-1.20554
-1.23074
-1.26021
-1.29361
-1.33023
-1.36875
-1.4073
-1.44356
-1.47498
-1.49891
-1.51258
-1.51331
-1.49845
-1.46527
-1.41094
-1.33255
-1.22685
-1.09057
-1.0796
-1.08296
-1.08977
-1.10001
-1.11364
-1.13062
-1.15086
-1.17415
-1.20008
-1.22795
-1.25659
-1.28441
-1.30949
-1.32971
-1.34282
-1.3465
-1.33842
-1.31625
-1.27763
-1.22021
-1.14174
-1.03997
-0.913034
-1.01415
-1.01691
-1.02252
-1.0309
-1.04193
-1.05549
-1.0714
-1.08935
-1.10892
-1.12944
-1.14991
-1.16897
-1.18503
-1.19629
-1.20083
-1.19672
-1.18201
-1.15472
-1.11287
-1.05462
-0.978308
-0.882414
-0.765964
-0.947869
-0.950086
-0.954594
-0.961293
-0.970012
-0.980574
-0.992726
-1.00613
-1.02036
-1.03479
-1.04855
-1.06051
-1.06934
-1.07354
-1.07147
-1.06152
-1.04207
-1.01152
-0.968263
-0.910864
-0.838149
-0.749218
-0.643531
-0.881115
-0.882849
-0.886359
-0.891546
-0.898216
-0.906171
-0.915118
-0.924709
-0.934513
-0.943953
-0.952278
-0.95856
-0.961697
-0.960429
-0.953411
-0.939291
-0.916732
-0.884442
-0.841197
-0.785919
-0.717771
-0.636223
-0.541086
-0.814181
-0.815487
-0.8181
-0.821934
-0.826808
-0.832509
-0.838743
-0.845164
-0.851351
-0.856773
-0.860787
-0.862622
-0.86137
-0.856001
-0.845417
-0.828503
-0.804178
-0.771422
-0.729299
-0.677005
-0.613974
-0.53992
-0.454885
-0.7473
-0.748221
-0.750041
-0.752678
-0.755986
-0.759754
-0.763709
-0.767523
-0.770793
-0.77304
-0.773712
-0.772163
-0.767648
-0.759336
-0.746346
-0.72778
-0.702777
-0.670537
-0.630342
-0.581615
-0.523998
-0.457372
-0.381882
-0.680644
-0.681224
-0.682352
-0.683955
-0.685916
-0.688043
-0.690098
-0.691782
-0.692726
-0.69251
-0.690658
-0.686628
-0.679808
-0.669536
-0.655114
-0.635834
-0.611013
-0.580031
-0.54236
-0.497603
-0.445541
-0.386142
-0.319612
-0.614342
-0.614632
-0.615168
-0.615899
-0.616723
-0.617479
-0.61797
-0.617931
-0.617044
-0.614952
-0.611251
-0.605485
-0.597157
-0.585739
-0.570688
-0.551452
-0.527501
-0.498364
-0.463664
-0.423131
-0.376637
-0.32421
-0.266081
-0.548492
-0.548541
-0.548585
-0.548596
-0.548485
-0.548123
-0.547349
-0.545944
-0.543646
-0.540162
-0.535157
-0.528258
-0.519064
-0.507162
-0.492131
-0.473547
-0.451009
-0.424169
-0.392761
-0.356607
-0.315638
-0.269909
-0.219676
-0.48314
-0.482988
-0.482639
-0.482071
-0.481214
-0.479969
-0.478207
-0.475756
-0.472412
-0.467942
-0.46208
-0.45453
-0.444982
-0.43312
-0.418622
-0.401168
-0.380464
-0.356257
-0.328365
-0.296678
-0.261168
-0.221885
-0.179111
-0.418301
-0.417989
-0.417331
-0.416316
-0.414885
-0.412968
-0.410465
-0.407253
-0.403179
-0.39807
-0.391723
-0.383918
-0.374426
-0.363014
-0.349443
-0.333484
-0.314925
-0.293597
-0.26938
-0.242215
-0.212108
-0.179139
-0.143362
-0.35401
-0.353588
-0.352692
-0.351343
-0.349484
-0.347071
-0.344038
-0.340302
-0.335764
-0.330302
-0.323776
-0.316036
-0.306925
-0.296283
-0.283945
-0.269755
-0.253575
-0.235299
-0.21486
-0.192235
-0.167439
-0.14054
-0.111529
-0.290376
-0.2899
-0.288827
-0.287235
-0.285066
-0.282301
-0.278904
-0.274836
-0.27004
-0.264447
-0.257975
-0.250541
-0.242055
-0.23242
-0.221537
-0.209317
-0.195683
-0.180582
-0.163986
-0.145896
-0.126331
-0.105324
-0.0828906
-0.22777
-0.227275
-0.226082
-0.224315
-0.221923
-0.21891
-0.215272
-0.211003
-0.206092
-0.200516
-0.194253
-0.187279
-0.179564
-0.171074
-0.161774
-0.151635
-0.140634
-0.128765
-0.116033
-0.102459
-0.0880692
-0.0728697
-0.0568431
-0.165725
-0.165256
-0.164011
-0.162133
-0.159593
-0.156422
-0.152647
-0.148297
-0.143398
-0.137976
-0.132061
-0.125682
-0.118868
-0.111643
-0.104033
-0.0960625
-0.0877611
-0.0791613
-0.0702991
-0.0612208
-0.0519664
-0.042532
-0.0328388
-0.100597
-0.100382
-0.0991486
-0.097222
-0.0946301
-0.0914317
-0.0876839
-0.0834482
-0.0787907
-0.0737825
-0.0685
-0.0630222
-0.0574285
-0.0517976
-0.0462061
-0.0407274
-0.0354309
-0.0303798
-0.0256318
-0.0212486
-0.0172872
-0.0137487
-0.010459
478.081
471.364
3.70562
6.1076
965.161
716.06
596.282
398.995
1197.14
1029.45
935.633
867.34
1074.13
1038.61
1005.33
994.747
235.927
385.37
862.867
1027.31
-2.88123
-0.757171
74.1131
649.142
-6.61762
-6.18831
-4.58754
103.017
-7.33168
-7.30264
-7.36018
-4.48517
-7.3294
-7.40985
-7.6664
-7.41129
-7.07283
-7.19514
-7.42338
-7.62699
-6.8695
-7.03309
-7.23284
-7.47036
-6.74881
-6.93133
-7.07992
-7.21312
-6.7175
-6.93239
-7.06475
-7.12976
-6.69309
-6.96984
-6.55304
-7.30234
-6.46478
-6.77581
-5.87225
-4.9564
-6.05409
-6.34525
-6.46821
-5.79284
-5.43999
-5.69458
-5.95809
-6.00903
-4.68173
-4.82314
-4.99433
-5.23079
-3.90933
-3.93281
-3.95768
-4.01415
-3.21526
-3.16848
-3.10776
-3.03759
-2.62461
-2.53727
-2.43068
-2.30661
-2.1366
-2.03246
-1.91007
-1.77025
-1.74218
-1.63472
-1.51208
-1.37511
-1.42576
-1.32246
-1.20714
-1.08077
-1.17184
-1.07626
-0.971397
-0.858152
-0.967173
-0.880594
-0.786928
-0.686945
-0.801167
-0.723683
-0.640801
-0.553158
-0.665556
-0.596719
-0.523758
-0.447188
-0.554015
-0.493156
-0.429127
-0.362337
-0.4617
-0.408088
-0.352017
-0.293808
-0.384815
-0.337744
-0.288739
-0.238058
-0.320334
-0.279162
-0.236449
-0.192408
-0.265854
-0.230013
-0.192938
-0.154803
-0.219464
-0.188471
-0.15649
-0.123665
-0.179649
-0.153103
-0.125773
-0.0977758
-0.145213
-0.122785
-0.0997474
-0.0761896
-0.115206
-0.0966288
-0.0775893
-0.058155
-0.0888334
-0.0738971
-0.0586231
-0.0430586
-0.0654374
-0.0539802
-0.0422883
-0.0303931
-0.0444684
-0.0363676
-0.0281183
-0.0197393
-0.0254383
-0.0206107
-0.0157056
-0.0107324
-0.00799262
-0.00639079
-0.00476858
-0.00312807
5.43046
5.14868
5.21733
5.21598
5.2176
5.20914
5.18207
5.13799
5.08246
5.02119
4.9589
4.89901
4.84384
4.79497
4.75339
4.71969
4.6942
4.67712
4.66856
9.60901
5.41913
5.21614
5.20215
5.23641
5.24555
5.21929
5.16674
5.09953
5.02666
4.95429
4.88626
4.82485
4.77139
4.72651
4.69052
4.66352
4.64553
4.63655
319.674
5.72545
5.0072
5.11525
5.26474
5.30824
5.27643
5.2067
5.12078
5.0314
4.94584
4.86783
4.79915
4.74053
4.69211
4.65374
4.6252
4.6063
4.5969
837.132
124.255
4.63197
5.05015
5.36975
5.424
5.36225
5.25869
5.14413
5.03261
4.9308
4.84138
4.76491
4.70105
4.64918
4.6086
4.57869
4.55899
4.54923
961.582
388.35
11.9595
5.41527
5.65228
5.61073
5.47704
5.31806
5.16364
5.02492
4.90491
4.80375
4.71986
4.6514
4.59669
4.55437
4.52343
4.50318
4.49317
990.843
673.829
50.5266
6.66726
5.98619
5.83441
5.60506
5.37041
5.16959
5.00045
4.86254
4.75116
4.66158
4.59
4.53362
4.49042
4.45903
4.43857
4.42848
912.56
862.28
120.243
8.43796
6.53738
6.08347
5.7183
5.40029
5.14493
4.94838
4.79708
4.6797
4.5878
4.51559
4.45925
4.41633
4.38524
4.365
4.35502
832.65
840.027
240.705
10.1565
7.22875
6.33904
5.78938
5.3646
5.06809
4.85669
4.70224
4.58628
4.49706
4.42748
4.37331
4.332
4.30203
4.28248
4.27284
663.86
848.033
286.357
11.179
7.50221
6.40307
5.69318
5.21555
4.91545
4.71528
4.5743
4.46986
4.38937
4.32603
4.27616
4.23774
4.20966
4.19126
4.18216
521.272
906.58
242.895
10.3454
6.88244
6.02795
5.33833
4.91686
4.67557
4.52278
4.41521
4.33295
4.26686
4.21278
4.16888
4.13434
4.10873
4.09179
4.08337
479.501
902.076
214.357
7.75199
5.45639
5.02659
4.67801
4.46149
4.3589
4.29181
4.23485
4.18226
4.1338
4.09044
4.05324
4.02294
4
3.98464
3.97696
414.058
878.41
221.109
3.29008
3.38352
3.39
3.67799
3.89008
4.01078
4.05273
4.0512
4.02802
3.99601
3.96237
3.93119
3.90476
3.8843
3.87044
3.86347
70.9185
819.262
598.005
18.6873
1.29211
1.66332
2.69881
3.43289
3.73392
3.85011
3.88586
3.88107
3.85893
3.8314
3.80435
3.78082
3.76237
3.7498
3.74345
-7.21359
730.1
720.008
182.092
2.7735
1.01309
2.23562
3.23044
3.61085
3.72147
3.75326
3.74703
3.72508
3.69887
3.67357
3.65176
3.63476
3.62321
3.61738
-7.15355
248.085
714.972
623.084
58.2584
3.81743
3.16322
3.54565
3.66221
3.66452
3.6489
3.62267
3.5928
3.56407
3.53868
3.51774
3.50178
3.49106
3.4857
-3.60516
-6.1517
296.439
364.957
112.262
5.57372
4.04147
3.81766
3.703
3.60887
3.54473
3.49603
3.45667
3.42462
3.39877
3.37853
3.36356
3.35369
3.34879
-5.56736
-6.59367
2.05434
17.7315
56.2158
11.664
4.19032
3.84026
3.63761
3.50393
3.41587
3.35515
3.31101
3.2779
3.25277
3.23388
3.22028
3.21145
3.20713
-5.46894
-3.7635
-1.9687
3.84435
5.06914
5.81448
3.99928
3.65313
3.464
3.33774
3.25271
3.19422
3.1527
3.12248
3.1002
3.08384
3.07227
3.06486
3.06126
-3.97437
-2.96384
-1.61442
1.42604
3.15436
3.48363
3.42985
3.30871
3.2023
3.11919
3.0581
3.01397
2.982
2.95864
2.94148
2.92897
2.92019
2.91461
2.91191
-2.83967
-2.07388
-0.757156
0.955819
2.17047
2.69618
2.87741
2.91408
2.89872
2.87029
2.84265
2.81972
2.80181
2.78816
2.7779
2.77033
2.76498
2.76159
2.75996
-2.03187
-1.34288
-0.344884
0.780947
1.64731
2.15318
2.41604
2.5401
2.59259
2.61299
2.61871
2.61851
2.61632
2.61372
2.61132
2.60933
2.60784
2.60687
2.60642
-1.48554
-0.895209
-0.144975
0.651581
1.30904
1.75798
2.03955
2.20774
2.30569
2.36279
2.39644
2.41693
2.42984
2.43825
2.44384
2.44758
2.45006
2.4516
2.45237
-1.11006
-0.616267
-0.0365349
0.557285
1.07151
1.46122
1.73586
1.92186
2.04553
2.1277
2.18271
2.2202
2.24612
2.26448
2.2775
2.28667
2.29297
2.29692
2.2989
-0.844482
-0.434281
0.0248204
0.487064
0.900315
1.23567
1.49141
1.67931
1.81478
1.91179
1.98135
2.03153
2.068
2.09471
2.1141
2.12803
2.13777
2.1439
2.14705
-0.651373
-0.309454
0.0617072
0.43262
0.772024
1.06041
1.2929
1.47392
1.61197
1.71611
1.79437
1.85311
1.89726
1.93038
1.95499
1.97296
1.98556
1.99352
1.99769
-0.507397
-0.220442
0.0849322
0.389158
0.672381
0.920982
1.12961
1.29917
1.43401
1.53981
1.62216
1.68591
1.73508
1.77273
1.80121
1.82226
1.83713
1.84657
1.85152
-0.397669
-0.155093
0.0996945
0.353298
0.592457
0.80741
0.993263
1.14928
1.27745
1.38116
1.46417
1.53005
1.58194
1.62238
1.65342
1.67661
1.69311
1.70365
1.70911
-0.312566
-0.106167
0.108714
0.322632
0.526356
0.712724
0.877549
1.01942
1.13899
1.23814
1.31933
1.38511
1.43783
1.47955
1.51196
1.53641
1.55392
1.56517
1.57092
-0.245704
-0.0691549
0.113522
0.29549
0.470113
0.632023
0.77774
0.905652
1.01567
1.10874
1.18638
1.25036
1.30242
1.34414
1.3769
1.40182
1.41978
1.43138
1.43723
-0.192684
-0.0410925
0.115066
0.270735
0.421019
0.561825
0.690286
0.804817
0.904945
0.991032
1.06397
1.12493
1.17516
1.21587
1.24813
1.27285
1.29076
1.30238
1.30819
-0.150372
-0.0199301
0.113994
0.247596
0.377188
0.499604
0.612492
0.714391
0.804656
0.8833
0.950791
1.00788
1.05542
1.09432
1.12538
1.14935
1.1668
1.17816
1.1838
-0.116461
-0.00419141
0.110776
0.225538
0.33727
0.443493
0.542286
0.63235
0.712989
0.784013
0.845616
0.898244
0.942481
0.978962
1.0083
1.03107
1.04771
1.05859
1.06394
-0.089224
0.00721336
0.105759
0.204172
0.300265
0.392085
0.478062
0.55707
0.628427
0.69184
0.747329
0.795132
0.835628
0.869256
0.896466
0.917676
0.933247
0.943452
0.948436
-0.0673515
0.0150974
0.0991982
0.183209
0.265426
0.344302
0.41856
0.487239
0.549706
0.605628
0.654922
0.69769
0.734158
0.764621
0.789396
0.808789
0.823072
0.832458
0.837006
-0.049845
0.0200746
0.0912848
0.162431
0.23218
0.299309
0.36278
0.421787
0.475766
0.524382
0.567497
0.605126
0.63739
0.664475
0.686598
0.703976
0.716811
0.725266
0.72933
-0.0359307
0.0226202
0.0821721
0.141674
0.200088
0.256447
0.309919
0.359836
0.405712
0.447236
0.484248
0.516708
0.544669
0.568239
0.58756
0.602783
0.614053
0.621494
0.625037
-0.0249945
0.0231128
0.0719847
0.120815
0.1688
0.215187
0.259316
0.30065
0.338782
0.373435
0.404449
0.431759
0.455371
0.475344
0.491765
0.504737
0.514359
0.520727
0.523724
-0.0165375
0.0218583
0.0608227
0.0997491
0.13803
0.175091
0.210424
0.243606
0.27431
0.302304
0.327439
0.349644
0.3689
0.385234
0.398698
0.409356
0.417276
0.422529
0.424962
-0.0101506
0.0191048
0.0487644
0.0783898
0.107539
0.135792
0.162772
0.188163
0.211712
0.233236
0.252611
0.269771
0.284688
0.29737
0.307844
0.316152
0.322333
0.326444
0.328303
-0.0054992
0.0150508
0.0358667
0.0566547
0.0771163
0.0969658
0.115945
0.133833
0.150453
0.165671
0.179397
0.191577
0.202184
0.211219
0.218693
0.22463
0.229051
0.232004
0.233288
-0.00229489
0.00987033
0.0221838
0.0344789
0.0465841
0.0583341
0.0695785
0.0801877
0.0900564
0.0991049
0.107277
0.114539
0.120873
0.126275
0.130749
0.134306
0.136957
0.138745
0.139461
-0.000351923
0.00364515
0.00768585
0.0117187
0.0156896
0.0195458
0.0232391
0.0267274
0.0299764
0.0329595
0.035658
0.0380594
0.0401572
0.0419487
0.0434346
0.0446178
0.045497
0.0460997
0.046319
)
;

boundaryField
{
    leftWall
    {
        type            fixedFluxPressure;
        gradient        uniform 0;
        value           nonuniform List<scalar> 
50
(
2135.44
2134.09
2131.38
2127.34
2122
2115.41
2107.62
2098.71
2083.04
2057.21
2027.72
1995.31
1960.79
1924.88
1888.66
1854
1820.86
1769.67
804.051
-1.54037
-1.5457
-1.55929
-1.56692
-1.56535
-1.55618
-1.53808
-1.50983
-1.47283
-1.42877
-1.37901
-1.32474
-1.26696
-1.20646
-1.14385
-1.0796
-1.01415
-0.947869
-0.881115
-0.814181
-0.7473
-0.680644
-0.614342
-0.548492
-0.48314
-0.418301
-0.35401
-0.290376
-0.22777
-0.165725
-0.100597
)
;
    }
    rightWall
    {
        type            fixedFluxPressure;
        gradient        uniform 0;
        value           nonuniform List<scalar> 
50
(
4.72668
4.72531
4.72251
4.71828
4.71262
4.7055
4.6969
4.68679
4.66856
4.63655
4.5969
4.54923
4.49317
4.42848
4.35502
4.27284
4.18216
4.08337
3.97696
3.86347
3.74345
3.61738
3.4857
3.34879
3.20713
3.06126
2.91191
2.75996
2.60642
2.45237
2.2989
2.14705
1.99769
1.85152
1.70911
1.57092
1.43723
1.30819
1.1838
1.06394
0.948436
0.837006
0.72933
0.625037
0.523724
0.424962
0.328303
0.233288
0.139461
0.046319
)
;
    }
    lowerWall
    {
        type            fixedFluxPressure;
        gradient        uniform 0;
        value           nonuniform List<scalar> 
62
(
2135.44
2143.34
2146.24
2145.26
2142.31
2139.06
2136.16
2133.82
2132.24
2131.81
2133.21
2137.66
2147.07
2164.23
2193.09
2239.52
2309.71
2407.28
2530.14
2660.35
2760.58
2781.55
2817.79
2817.79
2837.35
2889.18
2917.48
2877.74
2725.22
2578.73
2318.41
478.081
471.364
3.70562
6.1076
5.25293
5.25576
5.26044
5.26855
5.28014
5.29719
5.32121
5.35664
5.25293
5.23638
5.22031
5.20397
5.18425
5.16023
5.13052
5.09482
5.05394
5.00951
4.96346
4.9178
4.87436
4.83468
4.8
4.77126
4.74918
4.7342
4.72668
)
;
    }
    atmosphere
    {
        type            totalPressure;
        rho             rho;
        psi             none;
        gamma           1;
        p0              uniform 0;
        value           nonuniform List<scalar> 
46
(
-0.064735
-0.0650075
-0.0637481
-0.0618268
-0.059275
-0.0561587
-0.0525468
-0.0485163
-0.0441522
-0.0395472
-0.0347995
-0.0300108
-0.0252837
-0.0207191
-0.0164137
-0.0124579
-0.00893318
-0.00591043
-0.00345037
-0.00160996
-0.000449581
-7.56542e-06
0
0
0
0
0
0
0
0
0
0
0
0
0
0
0
0
0
0
0
0
0
0
0
0
)
;
    }
    defaultFaces
    {
        type            empty;
    }
}


// ************************************************************************* //
