/*--------------------------------*- C++ -*----------------------------------*\
| =========                 |                                                 |
| \\      /  F ield         | OpenFOAM: The Open Source CFD Toolbox           |
|  \\    /   O peration     | Version:  5.x                                   |
|   \\  /    A nd           | Web:      www.OpenFOAM.org                      |
|    \\/     M anipulation  |                                                 |
\*---------------------------------------------------------------------------*/
FoamFile
{
    version     2.0;
    format      ascii;
    class       surfaceScalarField;
    location    "0.2";
    object      phi;
}
// * * * * * * * * * * * * * * * * * * * * * * * * * * * * * * * * * * * * * //

dimensions      [0 3 -1 0 0 0 0];

internalField   nonuniform List<scalar> 
4432
(
2.03113e-06
-2.03113e-06
7.66958e-06
-5.63845e-06
1.4005e-05
-6.33543e-06
1.98921e-05
-5.8871e-06
2.52795e-05
-5.3874e-06
3.04194e-05
-5.13988e-06
3.55321e-05
-5.11269e-06
4.07296e-05
-5.19755e-06
4.60263e-05
-5.29668e-06
5.13686e-05
-5.34232e-06
5.66553e-05
-5.2867e-06
6.17394e-05
-5.0841e-06
6.64173e-05
-4.67784e-06
7.04079e-05
-3.99066e-06
7.32917e-05
-2.88375e-06
7.42338e-05
-9.42112e-07
7.16751e-05
2.55865e-06
6.33733e-05
8.30185e-06
4.74201e-05
1.59532e-05
2.35709e-05
2.38491e-05
-3.33965e-06
2.69106e-05
-1.8989e-05
1.56494e-05
-1.89891e-05
2.08066e-06
-4.1118e-06
7.72191e-06
-1.12797e-05
1.40571e-05
-1.26706e-05
1.99504e-05
-1.17804e-05
2.53437e-05
-1.07807e-05
3.04964e-05
-1.02926e-05
3.56323e-05
-1.02486e-05
4.08599e-05
-1.04251e-05
4.61909e-05
-1.06277e-05
5.15735e-05
-1.07249e-05
5.69106e-05
-1.06238e-05
6.20596e-05
-1.02331e-05
6.68216e-05
-9.43985e-06
7.0921e-05
-8.09007e-06
7.40037e-05
-5.96643e-06
7.58858e-05
-2.82426e-06
7.66225e-05
1.82202e-06
7.5979e-05
8.94528e-06
7.1674e-05
2.02582e-05
5.93757e-05
3.61474e-05
3.70134e-05
4.92729e-05
1.31239e-05
3.95389e-05
-5.86517e-06
2.14533e-06
-6.25714e-06
7.77854e-06
-1.69129e-05
1.40644e-05
-1.89565e-05
1.99051e-05
-1.7621e-05
2.52621e-05
-1.61377e-05
3.04027e-05
-1.54332e-05
3.55481e-05
-1.5394e-05
4.07993e-05
-1.56764e-05
4.61642e-05
-1.59925e-05
5.15929e-05
-1.61537e-05
5.69943e-05
-1.60252e-05
6.22341e-05
-1.54729e-05
6.71242e-05
-1.43299e-05
7.14083e-05
-1.23741e-05
7.4755e-05
-9.31319e-06
7.67116e-05
-4.78088e-06
7.68564e-05
1.67723e-06
7.51876e-05
1.06141e-05
7.24451e-05
2.30008e-05
6.83272e-05
4.02653e-05
5.72406e-05
6.03594e-05
3.29616e-05
6.3818e-05
2.70964e-05
2.24048e-06
-8.49762e-06
7.87458e-06
-2.2547e-05
1.40891e-05
-2.5171e-05
1.98482e-05
-2.33802e-05
2.51545e-05
-2.1444e-05
3.02841e-05
-2.05627e-05
3.54497e-05
-2.05596e-05
4.07407e-05
-2.09675e-05
4.61604e-05
-2.14122e-05
5.16623e-05
-2.16555e-05
5.71637e-05
-2.15267e-05
6.25429e-05
-2.08521e-05
6.76279e-05
-1.94149e-05
7.21786e-05
-1.69248e-05
7.58683e-05
-1.3003e-05
7.82819e-05
-7.1944e-06
7.89317e-05
1.02742e-06
7.73699e-05
1.21759e-05
7.36455e-05
2.67252e-05
6.91708e-05
4.47401e-05
6.19042e-05
6.7626e-05
4.16137e-05
8.41084e-05
6.87101e-05
2.36689e-06
-1.08645e-05
8.00367e-06
-2.81838e-05
1.41213e-05
-3.12887e-05
1.97717e-05
-2.90306e-05
2.50146e-05
-2.66869e-05
3.01346e-05
-2.56827e-05
3.53288e-05
-2.57538e-05
4.06713e-05
-2.631e-05
4.61605e-05
-2.69014e-05
5.17553e-05
-2.72503e-05
5.73846e-05
-2.7156e-05
6.29437e-05
-2.64112e-05
6.82814e-05
-2.47526e-05
7.31758e-05
-2.18192e-05
7.73115e-05
-1.71387e-05
8.0282e-05
-1.01649e-05
8.1635e-05
-3.25612e-07
8.08815e-05
1.29294e-05
7.74384e-05
3.01683e-05
7.13111e-05
5.08673e-05
6.28689e-05
7.60683e-05
4.40537e-05
0.000102924
0.000112764
2.52492e-06
-1.33894e-05
8.15692e-06
-3.38158e-05
1.41485e-05
-3.72802e-05
1.9666e-05
-3.45481e-05
2.48363e-05
-3.18572e-05
2.99478e-05
-3.07942e-05
3.51753e-05
-3.09813e-05
4.05746e-05
-3.17094e-05
4.61405e-05
-3.24672e-05
5.18397e-05
-3.29495e-05
5.76166e-05
-3.2933e-05
6.33888e-05
-3.21833e-05
6.90286e-05
-3.03924e-05
7.43331e-05
-2.71237e-05
7.90012e-05
-2.18068e-05
8.26364e-05
-1.38002e-05
8.47937e-05
-2.4829e-06
8.49575e-05
1.27656e-05
8.24729e-05
3.26529e-05
7.61253e-05
5.72149e-05
6.56139e-05
8.65797e-05
4.58583e-05
0.000122679
0.000158622
2.70907e-06
-1.60985e-05
8.32025e-06
-3.9427e-05
1.41562e-05
-4.31162e-05
1.95226e-05
-3.99145e-05
2.46148e-05
-3.69494e-05
2.97182e-05
-3.58976e-05
3.49794e-05
-3.62426e-05
4.04353e-05
-3.71652e-05
4.60787e-05
-3.81106e-05
5.18872e-05
-3.8758e-05
5.78254e-05
-3.88711e-05
6.38363e-05
-3.81942e-05
6.98167e-05
-3.63728e-05
7.55839e-05
-3.2891e-05
8.08587e-05
-2.70815e-05
8.52725e-05
-1.8214e-05
8.8382e-05
-5.59246e-06
8.96058e-05
1.15419e-05
8.8287e-05
3.39717e-05
8.2961e-05
6.25409e-05
7.16322e-05
9.79085e-05
5.21645e-05
0.000142147
0.000210787
2.90713e-06
-1.90056e-05
8.47252e-06
-4.49923e-05
1.41329e-05
-4.87766e-05
1.93406e-05
-4.51222e-05
2.4353e-05
-4.19618e-05
2.94469e-05
-4.09915e-05
3.47382e-05
-4.15338e-05
4.02455e-05
-4.26726e-05
4.59629e-05
-4.3828e-05
5.18821e-05
-4.46771e-05
5.79917e-05
-4.49808e-05
6.42615e-05
-4.4464e-05
7.06125e-05
-4.27238e-05
7.68891e-05
-3.91676e-05
8.28404e-05
-3.30328e-05
8.81292e-05
-2.35027e-05
9.23399e-05
-9.80321e-06
9.48276e-05
9.0542e-06
9.49653e-05
3.3834e-05
9.13908e-05
6.61154e-05
8.07354e-05
0.000108564
5.95999e-05
0.000163282
0.000270386
4.63363e-07
-4.63364e-07
7.58011e-07
-2.94629e-07
8.01558e-07
-4.36456e-08
1.32745e-06
-5.25839e-07
2.1301e-06
-8.02449e-07
3.0683e-06
-9.38303e-07
3.92997e-06
-8.61734e-07
4.60065e-06
-6.70627e-07
5.04155e-06
-4.40972e-07
5.23675e-06
-1.95064e-07
5.18123e-06
5.54586e-08
4.92763e-06
2.53523e-07
4.49815e-06
4.29497e-07
3.947e-06
5.51312e-07
3.26694e-06
6.80015e-07
2.5186e-06
7.48194e-07
1.70788e-06
8.10753e-07
8.5964e-07
8.48251e-07
8.59815e-07
-1.05645e-06
5.92958e-07
-5.32439e-07
-8.18525e-07
5.89262e-08
-6.34893e-07
1.1104e-06
-1.57742e-06
2.20524e-06
-1.89714e-06
3.3616e-06
-2.09474e-06
4.40217e-06
-1.90243e-06
5.21638e-06
-1.4846e-06
5.73374e-06
-9.58447e-07
5.95439e-06
-4.15756e-07
5.90612e-06
1.03802e-07
5.62644e-06
5.33344e-07
5.14667e-06
9.09181e-07
4.50222e-06
1.1958e-06
3.73948e-06
1.44295e-06
2.8764e-06
1.61118e-06
1.94559e-06
1.74173e-06
9.77981e-07
1.81537e-06
1.83798e-06
-9.83737e-07
1.5766e-06
-3.96423e-07
-1.40578e-06
1.20318e-07
-1.15146e-06
1.09251e-06
-2.54978e-06
2.17454e-06
-2.9791e-06
3.3527e-06
-3.27291e-06
4.40073e-06
-2.95051e-06
5.20194e-06
-2.2856e-06
5.71638e-06
-1.47289e-06
5.93085e-06
-6.30292e-07
5.87958e-06
1.55157e-07
5.59253e-06
8.20483e-07
5.11089e-06
1.39097e-06
4.46996e-06
1.83726e-06
3.7113e-06
2.20134e-06
2.85551e-06
2.46607e-06
1.93187e-06
2.66571e-06
9.70103e-07
2.77705e-06
2.80805e-06
-1.14883e-06
2.72538e-06
-7.0707e-07
-1.84758e-06
-1.20828e-07
-1.73753e-06
9.30515e-07
-3.60129e-06
2.11485e-06
-4.16337e-06
3.37998e-06
-4.53801e-06
4.48655e-06
-4.05708e-06
5.31393e-06
-3.11285e-06
5.82404e-06
-1.98306e-06
6.023e-06
-8.29336e-07
5.96869e-06
2.09852e-07
5.65807e-06
1.13141e-06
5.15997e-06
1.88862e-06
4.50171e-06
2.49506e-06
3.7361e-06
2.96672e-06
2.87074e-06
3.33168e-06
1.94337e-06
3.59352e-06
9.76434e-07
3.74369e-06
3.78446e-06
-1.77558e-06
4.50095e-06
-1.43593e-06
-2.18733e-06
-5.2177e-07
-2.65156e-06
7.16469e-07
-4.83967e-06
2.04681e-06
-5.49365e-06
3.42297e-06
-5.91405e-06
4.61697e-06
-5.25121e-06
5.4843e-06
-3.98012e-06
6.01213e-06
-2.51076e-06
6.20237e-06
-1.01963e-06
6.10688e-06
3.05089e-07
5.76894e-06
1.46894e-06
5.25994e-06
2.39737e-06
4.58421e-06
3.17109e-06
3.7951e-06
3.75626e-06
2.91093e-06
4.21585e-06
1.97305e-06
4.53142e-06
9.90078e-07
4.72634e-06
4.77462e-06
-2.23922e-06
6.7402e-06
-2.20985e-06
-2.21675e-06
-1.16209e-06
-3.69925e-06
2.93229e-07
-6.29511e-06
1.92445e-06
-7.1249e-06
3.4963e-06
-7.48567e-06
4.80435e-06
-6.5593e-06
5.7238e-06
-4.89969e-06
6.25264e-06
-3.03978e-06
6.42339e-06
-1.19058e-06
6.29892e-06
4.29464e-07
5.93839e-06
1.82946e-06
5.37765e-06
2.95825e-06
4.68558e-06
3.86324e-06
3.86328e-06
4.57874e-06
2.97036e-06
5.1084e-06
2.00778e-06
5.4938e-06
1.00682e-06
5.72711e-06
5.78152e-06
-3.1438e-06
9.884e-06
-3.76085e-06
-1.59966e-06
-2.31266e-06
-5.14738e-06
-4.47108e-07
-8.16068e-06
1.68254e-06
-9.25452e-06
3.5388e-06
-9.34181e-06
5.01443e-06
-8.03518e-06
6.01174e-06
-5.89701e-06
6.53026e-06
-3.55818e-06
6.68032e-06
-1.34048e-06
6.51733e-06
5.925e-07
6.12733e-06
2.21957e-06
5.54226e-06
3.54358e-06
4.79603e-06
4.60925e-06
3.96303e-06
5.41146e-06
3.02955e-06
6.04155e-06
2.04953e-06
6.47398e-06
1.02745e-06
6.74912e-06
6.8089e-06
-3.67191e-06
1.35559e-05
-6.38382e-06
1.11243e-06
-3.48673e-06
-8.04431e-06
-1.32331e-06
-1.0324e-05
1.40514e-06
-1.1983e-05
3.65619e-06
-1.15927e-05
5.3158e-06
-9.6948e-06
6.38484e-06
-6.96592e-06
6.89353e-06
-4.0666e-06
7.00821e-06
-1.45505e-06
6.7991e-06
8.01654e-07
6.3485e-06
2.67027e-06
5.71676e-06
4.1753e-06
4.94555e-06
5.38018e-06
4.06147e-06
6.29547e-06
3.1096e-06
6.9935e-06
2.09846e-06
7.48548e-06
1.05139e-06
7.79621e-06
7.86042e-06
6.7256e-06
-2.57312e-05
1.85114e-05
-5.67782e-05
2.98892e-05
-6.01544e-05
4.03803e-05
-5.56133e-05
5.0782e-05
-5.23635e-05
6.1579e-05
-5.17885e-05
7.28995e-05
-5.28543e-05
8.47457e-05
-5.45188e-05
9.71284e-05
-5.62107e-05
0.000110095
-5.76442e-05
0.000123718
-5.86037e-05
0.000138029
-5.87747e-05
0.000152983
-5.76781e-05
0.000168395
-5.4579e-05
0.000183798
-4.84358e-05
0.000198452
-3.81575e-05
0.000211547
-2.28974e-05
0.000221535
-9.34241e-07
0.000227572
2.77976e-05
0.000226972
6.67151e-05
0.000217924
0.000117611
0.000209087
0.000172119
0.000254257
0.000225217
7.53495e-06
-3.32662e-05
1.89379e-05
-6.81811e-05
2.94301e-05
-7.06465e-05
3.92329e-05
-6.54161e-05
4.93115e-05
-6.24421e-05
6.00265e-05
-6.25035e-05
7.13778e-05
-6.42055e-05
8.33362e-05
-6.64772e-05
9.59681e-05
-6.88426e-05
0.000109437
-7.11126e-05
0.000123952
-7.31196e-05
0.000139713
-7.45354e-05
0.000156964
-7.49292e-05
0.000175793
-7.34079e-05
0.000195759
-6.84019e-05
0.000215999
-5.83974e-05
0.000235646
-4.25443e-05
0.000253412
-1.86999e-05
0.000268418
1.27916e-05
0.000278507
5.66262e-05
0.000287081
0.000109037
0.000297637
0.000161564
0.000228094
0.000323799
8.29012e-06
-4.15563e-05
1.91286e-05
-7.90196e-05
2.86264e-05
-8.01443e-05
3.77584e-05
-7.45481e-05
4.75186e-05
-7.22022e-05
5.80669e-05
-7.30518e-05
6.92963e-05
-7.5435e-05
8.11844e-05
-7.83653e-05
9.38878e-05
-8.15459e-05
0.000107689
-8.49142e-05
0.000122918
-8.83483e-05
0.000139951
-9.15679e-05
0.000159457
-9.44352e-05
0.000181923
-9.58742e-05
0.000206955
-9.34337e-05
0.000233484
-8.4927e-05
0.000261129
-7.01886e-05
0.00028719
-4.47613e-05
0.000314094
-1.41125e-05
0.00033154
3.91807e-05
0.00033808
0.000102497
0.000341602
0.000158042
0.000209497
0.000360199
8.9079e-06
-5.04642e-05
1.89999e-05
-8.91116e-05
2.74879e-05
-8.86323e-05
3.60065e-05
-8.30668e-05
4.54252e-05
-8.16209e-05
5.56798e-05
-8.33064e-05
6.66031e-05
-8.63583e-05
7.82126e-05
-8.99749e-05
9.0751e-05
-9.40843e-05
0.000104516
-9.8679e-05
0.000119835
-0.000103668
0.000137162
-0.000108894
0.000157933
-0.000115207
0.000183337
-0.000121278
0.000212598
-0.000122694
0.000243593
-0.000115923
0.000278925
-0.00010552
0.000306468
-7.23041e-05
0.000320805
-2.84496e-05
0.000335584
2.44019e-05
0.000346114
9.19663e-05
0.000348364
0.000155792
0.00020027
0.000357591
9.34833e-06
-5.98125e-05
1.85356e-05
-9.82989e-05
2.60554e-05
-9.61521e-05
3.40186e-05
-9.103e-05
4.30364e-05
-9.06387e-05
5.28411e-05
-9.31111e-05
6.32403e-05
-9.67574e-05
7.42814e-05
-0.000101016
8.61592e-05
-0.000105962
9.89708e-05
-0.000111491
0.000112903
-0.0001176
0.000128597
-0.000124588
0.000149391
-0.000136001
0.000177041
-0.000148928
0.000208089
-0.000153743
0.000236788
-0.000144622
0.000261603
-0.000130335
0.000286295
-9.69959e-05
0.000294729
-3.68838e-05
0.000309787
9.34371e-06
0.000325238
7.65152e-05
0.000336771
0.000144259
0.000190485
0.000346556
9.61654e-06
-6.94291e-05
1.7765e-05
-0.000106447
2.43866e-05
-0.000102774
3.18248e-05
-9.84681e-05
4.03216e-05
-9.91355e-05
4.94365e-05
-0.000102226
5.89407e-05
-0.000106262
6.8832e-05
-0.000110907
7.90748e-05
-0.000116205
8.96026e-05
-0.000122018
0.000100706
-0.000128703
0.000114459
-0.000138341
0.000137078
-0.00015862
0.000167764
-0.000179614
0.000195993
-0.000181972
0.000220539
-0.000169168
0.000236488
-0.000146284
0.000255755
-0.000116262
0.000282951
-6.40801e-05
0.000297169
-4.87372e-06
0.000316706
5.69774e-05
0.000328321
0.000132644
0.000181442
0.000337364
9.74216e-06
-7.91712e-05
1.66748e-05
-0.00011338
2.24171e-05
-0.000108516
2.92537e-05
-0.000105305
3.69459e-05
-0.000106828
4.49139e-05
-0.000110194
5.28961e-05
-0.000114244
6.08226e-05
-0.000118834
6.86965e-05
-0.000124079
7.70882e-05
-0.00013041
8.74714e-05
-0.000139087
0.000105393
-0.000156263
0.000135786
-0.000189014
0.000171415
-0.000215242
0.000197164
-0.000207721
0.00023341
-0.000205414
0.000259002
-0.000171876
0.000255583
-0.000112843
0.000246668
-5.51651e-05
0.000265609
-2.38148e-05
0.000303683
1.89034e-05
0.000331439
0.000104888
0.000172995
0.000339887
9.65827e-06
-8.88295e-05
1.51023e-05
-0.000118824
1.9841e-05
-0.000113255
2.58219e-05
-0.000111286
3.22598e-05
-0.000113266
3.85884e-05
-0.000116523
4.47592e-05
-0.000120415
5.10958e-05
-0.00012517
5.8739e-05
-0.000131722
7.0842e-05
-0.000142513
9.19572e-05
-0.000160202
0.000126792
-0.000191098
0.000171361
-0.000233583
0.000195477
-0.000239358
0.000224121
-0.000236365
0.000242612
-0.000223904
0.00023816
-0.000167424
0.000203308
-7.79914e-05
0.000180612
-3.24685e-05
0.000191774
-3.49771e-05
0.000232708
-2.20304e-05
0.000279831
5.77652e-05
0.000144572
0.000308254
9.50981e-06
-9.83393e-05
1.29737e-05
-0.000122288
1.64517e-05
-0.000116733
2.14689e-05
-0.000116303
2.67743e-05
-0.000118571
3.22901e-05
-0.000122038
3.91064e-05
-0.000127231
4.90635e-05
-0.000135127
6.70279e-05
-0.000149686
9.72213e-05
-0.000172707
0.000151264
-0.000214244
0.000203401
-0.000243234
0.000231642
-0.000261825
0.000221056
-0.000228771
0.000203927
-0.000219237
0.000195168
-0.000215145
0.000179521
-0.000151776
0.000143591
-4.20621e-05
0.000125841
-1.4718e-05
0.000130351
-3.94871e-05
0.000152426
-4.4105e-05
0.000191806
1.83851e-05
0.000100086
0.000236292
1.02329e-05
-0.000108572
1.12264e-05
-0.000123281
1.38946e-05
-0.000119401
1.95078e-05
-0.000121916
2.67153e-05
-0.000125779
3.71851e-05
-0.000132508
5.38103e-05
-0.000143856
8.03608e-05
-0.000161678
0.000131353
-0.000200679
0.000187275
-0.000228628
0.000232952
-0.000259922
0.000259988
-0.000270269
0.000250452
-0.000252289
0.000204656
-0.000182975
0.000167899
-0.000182479
0.000144637
-0.000191883
0.000129571
-0.00013671
0.000108226
-2.07168e-05
9.29342e-05
5.73702e-07
8.39491e-05
-3.05021e-05
8.65924e-05
-4.67484e-05
0.000116789
-1.1811e-05
4.41056e-05
0.00017277
1.28206e-05
-0.000121393
1.4044e-05
-0.000124505
1.98524e-05
-0.000125209
3.14323e-05
-0.000133496
4.94855e-05
-0.000143832
8.22104e-05
-0.000165233
0.000119597
-0.000181243
0.000160787
-0.000202868
0.000197639
-0.000237531
0.000238441
-0.00026943
0.000267011
-0.000288492
0.000276425
-0.000279683
0.00025597
-0.000231835
0.000201193
-0.000128197
0.000152349
-0.000133635
0.000123765
-0.0001633
0.000102264
-0.000115209
8.19006e-05
-3.53455e-07
6.7068e-05
1.54065e-05
5.4791e-05
-1.8225e-05
4.92261e-05
-4.11837e-05
7.34108e-05
-3.59958e-05
-1.26693e-05
0.000130186
1.32924e-05
-0.000134685
2.8452e-05
-0.000139664
4.34068e-05
-0.000140164
6.1779e-05
-0.000151868
8.38304e-05
-0.000165883
0.000103774
-0.000185176
0.000129366
-0.000206835
0.000160255
-0.000233757
0.000191108
-0.000268384
0.000223954
-0.000302277
0.000250186
-0.000314724
0.000257016
-0.000286513
0.000238856
-0.000213675
0.000195204
-8.45459e-05
0.000145708
-8.41389e-05
0.000111439
-0.000129031
8.0747e-05
-8.45168e-05
5.4242e-05
2.61517e-05
4.27854e-05
2.6863e-05
3.4237e-05
-9.6765e-06
3.19065e-05
-3.8853e-05
5.05667e-05
-5.4656e-05
-5.65079e-05
9.4405e-05
7.45473e-06
-0.00014214
2.25599e-05
-0.000154769
3.87481e-05
-0.000156352
5.31748e-05
-0.000166295
6.83564e-05
-0.000181064
8.3394e-05
-0.000200214
0.000100463
-0.000223904
0.000122233
-0.000255528
0.000150157
-0.000296307
0.000179534
-0.000331653
0.000196706
-0.000331896
0.000195958
-0.000285765
0.000180194
-0.000197911
0.000155249
-5.9601e-05
0.0001235
-5.23903e-05
8.92437e-05
-9.47742e-05
4.92769e-05
-4.455e-05
1.96832e-05
5.57454e-05
1.24674e-05
3.40788e-05
1.01014e-05
-7.31065e-06
1.24385e-05
-4.119e-05
2.99024e-05
-7.21198e-05
-9.17186e-05
6.51133e-05
7.58369e-06
-0.000149723
1.77517e-05
-0.000164937
2.8017e-05
-0.000166617
3.76335e-05
-0.000175911
4.68409e-05
-0.000190272
5.57546e-05
-0.000209127
6.58157e-05
-0.000233965
7.99362e-05
-0.000269648
9.80633e-05
-0.000314434
0.000111822
-0.000345412
0.000113573
-0.000333647
0.000103617
-0.00027581
8.9424e-05
-0.000183717
8.98053e-05
-5.99823e-05
8.38953e-05
-4.64803e-05
5.08363e-05
-6.17151e-05
6.35344e-07
5.65098e-06
-2.33701e-05
7.97508e-05
-2.12829e-05
3.19915e-05
-2.09169e-05
-7.67659e-06
-1.78771e-05
-4.42297e-05
-7.71953e-06
-8.22775e-05
-0.000113132
1.36939e-05
7.06751e-06
-0.000156791
1.14038e-05
-0.000169274
1.68229e-05
-0.000172037
2.19255e-05
-0.000181014
2.59023e-05
-0.000194249
2.85006e-05
-0.000211726
3.02161e-05
-0.00023568
3.2251e-05
-0.000271683
3.21959e-05
-0.000314379
2.5358e-05
-0.000338574
1.31481e-05
-0.000321437
1.32528e-06
-0.000263987
1.58985e-06
-0.000183982
1.93533e-05
-7.77457e-05
1.88233e-05
-4.59503e-05
-2.82729e-05
-1.46188e-05
-7.99985e-05
5.73766e-05
-7.05291e-05
7.02814e-05
-5.99624e-05
2.14248e-05
-5.68319e-05
-1.0807e-05
-5.69479e-05
-4.41138e-05
-5.90758e-05
-8.01496e-05
-0.000113912
-5.82963e-05
4.48034e-06
-0.000161271
5.15783e-06
-0.000169951
6.99297e-06
-0.000173872
7.9054e-06
-0.000181926
6.96176e-06
-0.000193305
3.45329e-06
-0.000208217
-3.21039e-06
-0.000229016
-1.56091e-05
-0.000259284
-3.49239e-05
-0.000295064
-5.78076e-05
-0.00031569
-7.60839e-05
-0.000303161
-8.35097e-05
-0.000256561
-8.57916e-05
-0.0001817
-6.72498e-05
-9.62875e-05
-7.91019e-05
-3.40982e-05
-0.000122396
2.86753e-05
-0.000133824
6.88042e-05
-0.000107624
4.40814e-05
-9.47786e-05
8.57952e-06
-9.0776e-05
-1.48096e-05
-9.4123e-05
-4.0767e-05
-0.000105463
-6.88102e-05
-9.83314e-05
-0.000121043
1.20726e-06
-0.000162479
4.1513e-08
-0.000168786
-1.24987e-06
-0.00017258
-3.88147e-06
-0.000179294
-8.84558e-06
-0.000188341
-1.73115e-05
-0.000199751
-3.14843e-05
-0.000214843
-5.39835e-05
-0.000236785
-8.54751e-05
-0.000263573
-0.000120056
-0.00028111
-0.000148803
-0.000274413
-0.000168824
-0.00023654
-0.000182776
-0.000167749
-0.000190498
-8.85652e-05
-0.000202405
-2.21908e-05
-0.000197804
2.40739e-05
-0.000165316
3.63166e-05
-0.000133504
1.22694e-05
-0.000121286
-3.6391e-06
-0.000117357
-1.8738e-05
-0.00012176
-3.63642e-05
-0.000135966
-5.46039e-05
-7.406e-05
-0.000160238
-1.50895e-06
-0.00016097
-4.5242e-06
-0.00016577
-8.03317e-06
-0.000169072
-1.31602e-05
-0.000174168
-2.06587e-05
-0.000180842
-3.16902e-05
-0.00018872
-4.85442e-05
-0.000197989
-7.44496e-05
-0.00021088
-0.000110568
-0.000227454
-0.000152805
-0.000238873
-0.000194545
-0.000232673
-0.000230143
-0.000200942
-0.000251143
-0.000146749
-0.000253571
-8.6137e-05
-0.000241274
-3.44873e-05
-0.000211133
-6.06787e-06
-0.000171484
-3.33219e-06
-0.000148327
-1.08879e-05
-0.000138114
-1.38525e-05
-0.000134912
-2.19396e-05
-0.000139646
-3.16307e-05
-0.000153222
-4.10271e-05
-4.93643e-05
-0.000177919
-3.50188e-06
-0.000157468
-7.8923e-06
-0.00016138
-1.31188e-05
-0.000163845
-1.98054e-05
-0.000167481
-2.86067e-05
-0.000172041
-4.0311e-05
-0.000177015
-5.6415e-05
-0.000181885
-7.98106e-05
-0.000187484
-0.000112777
-0.000194487
-0.000152929
-0.000198721
-0.000193581
-0.000192021
-0.000226085
-0.000168438
-0.000242376
-0.000130459
-0.000239741
-8.87718e-05
-0.000219883
-5.43451e-05
-0.000190763
-3.51882e-05
-0.000165743
-2.83514e-05
-0.000152569
-2.40623e-05
-0.000145467
-2.09538e-05
-0.000143887
-2.35197e-05
-0.00014871
-2.68078e-05
-0.000160488
-2.925e-05
-2.92143e-05
-0.000180638
-4.86722e-06
-0.000152601
-1.03607e-05
-0.000155887
-1.66629e-05
-0.000157543
-2.42164e-05
-0.000159928
-3.34989e-05
-0.000162759
-4.49214e-05
-0.000165593
-5.90718e-05
-0.000167735
-7.75876e-05
-0.000168968
-0.000102488
-0.000169587
-0.000132934
-0.000168274
-0.00016391
-0.000161046
-0.00018805
-0.000144298
-0.000199503
-0.000119005
-0.000197379
-9.08962e-05
-0.000184683
-6.70408e-05
-0.000168887
-5.09847e-05
-0.000157427
-3.9812e-05
-0.00015072
-3.07691e-05
-0.000146206
-2.54682e-05
-0.00014597
-2.3755e-05
-0.000150634
-2.2144e-05
-0.00016023
-1.96548e-05
-1.43362e-05
-0.000175108
-5.75831e-06
-0.000146843
-1.20015e-05
-0.000149643
-1.89274e-05
-0.000150617
-2.68683e-05
-0.000151987
-3.61607e-05
-0.000153466
-4.70315e-05
-0.000154722
-5.95556e-05
-0.000155211
-7.41142e-05
-0.000154409
-9.16336e-05
-0.000152067
-0.000112167
-0.000147741
-0.000133229
-0.000139984
-0.000150481
-0.000127046
-0.000160396
-0.000109089
-0.000162239
-8.90536e-05
-0.00015838
-7.08993e-05
-0.000153032
-5.63326e-05
-0.000148484
-4.43596e-05
-0.00014481
-3.44436e-05
-0.000142533
-2.77453e-05
-0.00014339
-2.28979e-05
-0.00014747
-1.80641e-05
-0.000154786
-1.23391e-05
-3.80962e-06
-0.000165313
-6.2868e-06
-0.000140556
-1.29641e-05
-0.000142966
-2.01829e-05
-0.000143398
-2.81906e-05
-0.000143979
-3.72199e-05
-0.000144437
-4.74306e-05
-0.000144511
-5.88046e-05
-0.000143837
-7.12268e-05
-0.000141987
-8.4768e-05
-0.000138526
-9.94521e-05
-0.000133056
-0.000114313
-0.000125123
-0.000127166
-0.000114194
-0.000135947
-0.000100309
-0.000140134
-8.48666e-05
-0.000140954
-7.00789e-05
-0.000140164
-5.71231e-05
-0.000138722
-4.58014e-05
-0.000136941
-3.62249e-05
-0.00013632
-2.83661e-05
-0.000137679
-2.15394e-05
-0.000141023
-1.47199e-05
-0.000146342
-7.02007e-06
3.04324e-06
-0.000153195
-6.5398e-06
-0.000134016
-1.33921e-05
-0.000136114
-2.0657e-05
-0.000136133
-2.85166e-05
-0.000136119
-3.71229e-05
-0.000135831
-4.65805e-05
-0.000135054
-5.6895e-05
-0.000133522
-6.793e-05
-0.000130951
-7.94461e-05
-0.000127009
-9.11527e-05
-0.00012135
-0.000102533
-0.000113743
-0.000112617
-0.00010411
-0.000120286
-9.26394e-05
-0.000125054
-8.00982e-05
-0.000127454
-6.7679e-05
-0.000128361
-5.62163e-05
-0.000128392
-4.57703e-05
-0.000128211
-3.64055e-05
-0.000128596
-2.79819e-05
-0.000130082
-2.00533e-05
-0.000132681
-1.21215e-05
-0.000136312
-3.38859e-06
7.18938e-06
-0.000140458
-6.58026e-06
-0.000127436
-1.34108e-05
-0.000129283
-2.05437e-05
-0.000129
-2.81121e-05
-0.00012855
-3.62099e-05
-0.000127733
-4.48867e-05
-0.000126377
-5.41284e-05
-0.00012428
-6.38377e-05
-0.000121242
-7.37902e-05
-0.000117057
-8.36402e-05
-0.0001115
-9.29669e-05
-0.000104416
-0.000101243
-9.58332e-05
-0.000107886
-8.5996e-05
-0.000112585
-7.53989e-05
-0.000115556
-6.47088e-05
-0.000117307
-5.44655e-05
-0.000118323
-4.47547e-05
-0.0001191
-3.56276e-05
-0.000120088
-2.69946e-05
-0.000121478
-1.86628e-05
-0.000123416
-1.0184e-05
-0.000125742
-1.06328e-06
9.44019e-06
-0.000127993
-6.46505e-06
-0.00012097
-1.31301e-05
-0.000122618
-2.00091e-05
-0.000122121
-2.71962e-05
-0.000121363
-3.4747e-05
-0.000120182
-4.26751e-05
-0.000118449
-5.09389e-05
-0.000116016
-5.9445e-05
-0.000112736
-6.80359e-05
-0.000108466
-7.64585e-05
-0.000103077
-8.43715e-05
-9.65035e-05
-9.14024e-05
-8.88024e-05
-9.72236e-05
-8.01748e-05
-0.000101677
-7.09459e-05
-0.000104876
-6.15096e-05
-0.000107136
-5.22047e-05
-0.00010873
-4.31612e-05
-0.00011002
-3.43375e-05
-0.000111202
-2.5813e-05
-0.000112484
-1.73807e-05
-0.000113872
-8.79578e-06
-0.000115245
3.09423e-07
1.04203e-05
-0.000116226
-6.2403e-06
-0.00011473
-1.26382e-05
-0.00011622
-1.9183e-05
-0.000115576
-2.59372e-05
-0.000114609
-3.29317e-05
-0.000113188
-4.01629e-05
-0.000111218
-4.75862e-05
-0.000108593
-5.51105e-05
-0.000105212
-6.25968e-05
-0.000100979
-6.98552e-05
-9.58188e-05
-7.66508e-05
-8.9708e-05
-8.27363e-05
-8.27169e-05
-8.79107e-05
-7.50003e-05
-9.20827e-05
-6.6774e-05
-9.53093e-05
-5.82832e-05
-9.77737e-05
-4.97403e-05
-9.96613e-05
-4.12733e-05
-0.000101131
-3.28677e-05
-0.000102377
-2.45676e-05
-0.000103483
-1.62749e-05
-0.000104442
-7.83693e-06
-0.000105151
1.0181e-06
1.05829e-05
-0.000105313
-5.94072e-06
-0.000108789
-1.2003e-05
-0.000110158
-1.81622e-05
-0.000109417
-2.44568e-05
-0.000108314
-3.09011e-05
-0.000106744
-3.74806e-05
-0.000104638
-4.41511e-05
-0.000101923
-5.08337e-05
-9.85292e-05
-5.74139e-05
-9.4399e-05
-6.37433e-05
-8.94895e-05
-6.96551e-05
-8.37963e-05
-7.49921e-05
-7.73799e-05
-7.96292e-05
-7.0363e-05
-8.34993e-05
-6.29037e-05
-8.66227e-05
-5.51601e-05
-8.91011e-05
-4.7262e-05
-9.10423e-05
-3.93321e-05
-9.25668e-05
-3.13432e-05
-9.37742e-05
-2.33603e-05
-9.46983e-05
-1.53511e-05
-9.5343e-05
-7.19238e-06
-9.56097e-05
1.28469e-06
1.02448e-05
-9.52715e-05
-5.5914e-06
-0.000103198
-1.1275e-05
-0.000104474
-1.7019e-05
-0.000103673
-2.28439e-05
-0.000102489
-2.87527e-05
-0.000100835
-3.47254e-05
-9.86654e-05
-4.07195e-05
-9.59291e-05
-4.66681e-05
-9.25807e-05
-5.24831e-05
-8.8584e-05
-5.8054e-05
-8.39187e-05
-6.32557e-05
-7.85946e-05
-6.79729e-05
-7.26626e-05
-7.21231e-05
-6.62128e-05
-7.56679e-05
-5.93589e-05
-7.8614e-05
-5.22139e-05
-8.10046e-05
-4.48715e-05
-8.29173e-05
-3.74194e-05
-8.43847e-05
-2.98758e-05
-8.54962e-05
-2.22488e-05
-8.62912e-05
-1.45561e-05
-8.66879e-05
-6.79568e-06
-8.66727e-05
1.26941e-06
9.62235e-06
-8.60504e-05
-5.20956e-06
-9.79886e-05
-1.04901e-05
-9.91936e-05
-1.58037e-05
-9.83591e-05
-2.116e-05
-9.71331e-05
-2.65534e-05
-9.54412e-05
-3.19627e-05
-9.32561e-05
-3.73492e-05
-9.05426e-05
-4.26569e-05
-8.72728e-05
-4.78141e-05
-8.34267e-05
-5.27359e-05
-7.89971e-05
-5.73324e-05
-7.39982e-05
-6.1522e-05
-6.84729e-05
-6.52442e-05
-6.24906e-05
-6.8468e-05
-5.61352e-05
-7.11907e-05
-4.94913e-05
-7.34304e-05
-4.26319e-05
-7.52366e-05
-3.56132e-05
-7.6638e-05
-2.84745e-05
-7.76291e-05
-2.12578e-05
-7.82644e-05
-1.39209e-05
-7.85379e-05
-6.5221e-06
-7.8337e-05
1.06857e-06
8.85633e-06
-7.75708e-05
-4.8078e-06
-9.31808e-05
-9.67331e-06
-9.4328e-05
-1.4552e-05
-9.34803e-05
-1.9447e-05
-9.22381e-05
-2.43471e-05
-9.0541e-05
-2.9231e-05
-8.83723e-05
-3.40637e-05
-8.57099e-05
-3.87988e-05
-8.25375e-05
-4.33799e-05
-7.88455e-05
-4.77418e-05
-7.46352e-05
-5.18165e-05
-6.99236e-05
-5.55425e-05
-6.47468e-05
-5.88747e-05
-5.91584e-05
-6.17871e-05
-5.32229e-05
-6.42707e-05
-4.70076e-05
-6.63319e-05
-4.05705e-05
-6.79939e-05
-3.39512e-05
-6.926e-05
-2.72086e-05
-7.01706e-05
-2.03474e-05
-7.07026e-05
-1.33891e-05
-7.08544e-05
-6.37035e-06
-7.05574e-05
7.71587e-07
8.04325e-06
-6.97442e-05
-4.3962e-06
-8.87844e-05
-8.84277e-06
-8.98813e-05
-1.32888e-05
-8.90343e-05
-1.77334e-05
-8.77935e-05
-2.21622e-05
-8.61122e-05
-2.65544e-05
-8.39802e-05
-3.08792e-05
-8.13852e-05
-3.50981e-05
-7.83187e-05
-3.91653e-05
-7.47784e-05
-4.303e-05
-7.07705e-05
-4.66407e-05
-6.63128e-05
-4.99509e-05
-6.14366e-05
-5.29241e-05
-5.61852e-05
-5.55373e-05
-5.06097e-05
-5.77805e-05
-4.47644e-05
-5.96537e-05
-3.86971e-05
-6.11601e-05
-3.24449e-05
-6.23137e-05
-2.60551e-05
-6.31185e-05
-1.95426e-05
-6.35548e-05
-1.29528e-05
-6.36227e-05
-6.30246e-06
-6.32872e-05
4.36032e-07
7.24371e-06
-6.24877e-05
-3.98303e-06
-8.48013e-05
-8.01203e-06
-8.58521e-05
-1.20318e-05
-8.50147e-05
-1.60386e-05
-8.37863e-05
-2.00167e-05
-8.2134e-05
-2.39463e-05
-8.00507e-05
-2.78003e-05
-7.7531e-05
-3.15469e-05
-7.45722e-05
-3.51488e-05
-7.11765e-05
-3.8566e-05
-6.73532e-05
-4.17585e-05
-6.31202e-05
-4.46902e-05
-5.85049e-05
-4.73319e-05
-5.35436e-05
-4.96627e-05
-4.82789e-05
-5.16715e-05
-4.27555e-05
-5.33535e-05
-3.70152e-05
-5.47048e-05
-3.10937e-05
-5.57395e-05
-2.50206e-05
-5.64369e-05
-1.88453e-05
-5.67944e-05
-1.25952e-05
-5.68249e-05
-6.27189e-06
-5.64797e-05
9.08543e-08
6.49166e-06
-5.57277e-05
-3.57473e-06
-8.12265e-05
-7.19108e-06
-8.22356e-05
-1.07929e-05
-8.1413e-05
-1.4375e-05
-8.0204e-05
-1.79213e-05
-7.85875e-05
-2.1413e-05
-7.65588e-05
-2.48269e-05
-7.4117e-05
-2.81363e-05
-7.12629e-05
-3.13109e-05
-6.80021e-05
-3.43186e-05
-6.43454e-05
-3.71282e-05
-6.03106e-05
-3.97109e-05
-5.59223e-05
-4.20427e-05
-5.12118e-05
-4.41059e-05
-4.62156e-05
-4.58887e-05
-4.09727e-05
-4.73829e-05
-3.5521e-05
-4.85837e-05
-2.9893e-05
-4.94895e-05
-2.41149e-05
-5.01048e-05
-1.823e-05
-5.04206e-05
-1.22794e-05
-5.04163e-05
-6.27606e-06
-5.0083e-05
-2.42355e-07
5.80662e-06
-4.93981e-05
-3.17489e-06
-7.80517e-05
-6.38584e-06
-7.90248e-05
-9.57935e-06
-7.82194e-05
-1.27497e-05
-7.70337e-05
-1.5881e-05
-7.54561e-05
-1.89561e-05
-7.34836e-05
-2.19552e-05
-7.11179e-05
-2.48556e-05
-6.83626e-05
-2.76327e-05
-6.52251e-05
-3.0261e-05
-6.17172e-05
-3.27154e-05
-5.78562e-05
-3.49728e-05
-5.36649e-05
-3.70137e-05
-4.9171e-05
-3.8823e-05
-4.44064e-05
-4.03898e-05
-3.94059e-05
-4.17062e-05
-3.42047e-05
-4.27648e-05
-2.88346e-05
-4.3559e-05
-2.33207e-05
-4.40906e-05
-1.76984e-05
-4.43599e-05
-1.20098e-05
-4.43496e-05
-6.28637e-06
-4.40462e-05
-5.45798e-07
5.20034e-06
-4.34401e-05
-2.78381e-06
-7.52677e-05
-5.5976e-06
-7.62112e-05
-8.39292e-06
-7.54239e-05
-1.11639e-05
-7.42628e-05
-1.38956e-05
-7.27245e-05
-1.65725e-05
-7.08068e-05
-1.91776e-05
-6.8513e-05
-2.16921e-05
-6.58483e-05
-2.40959e-05
-6.28213e-05
-2.63686e-05
-5.94445e-05
-2.84902e-05
-5.57347e-05
-3.04422e-05
-5.17131e-05
-3.22084e-05
-4.74048e-05
-3.37761e-05
-4.28386e-05
-3.51359e-05
-3.8046e-05
-3.62806e-05
-3.306e-05
-3.72028e-05
-2.79124e-05
-3.78941e-05
-2.26293e-05
-3.83582e-05
-1.72341e-05
-3.85958e-05
-1.17721e-05
-3.8579e-05
-6.30329e-06
-3.83203e-05
-8.046e-07
4.68066e-06
-3.78008e-05
-2.39836e-06
-7.28692e-05
-4.82403e-06
-7.37856e-05
-7.23197e-06
-7.30159e-05
-9.61569e-06
-7.18791e-05
-1.19617e-05
-7.03786e-05
-1.42563e-05
-6.85123e-05
-1.64849e-05
-6.62845e-05
-1.86322e-05
-6.37012e-05
-2.0682e-05
-6.07715e-05
-2.26182e-05
-5.75083e-05
-2.4425e-05
-5.3928e-05
-2.60875e-05
-5.00506e-05
-2.75927e-05
-4.58995e-05
-2.89301e-05
-4.15012e-05
-3.00918e-05
-3.68843e-05
-3.10717e-05
-3.208e-05
-3.18642e-05
-2.712e-05
-3.24617e-05
-2.20317e-05
-3.28596e-05
-1.68361e-05
-3.30624e-05
-1.15693e-05
-3.30765e-05
-6.28925e-06
-3.28621e-05
-1.01912e-06
4.25062e-06
-3.2432e-05
-2.01069e-06
-7.08587e-05
-4.05905e-06
-7.17372e-05
-6.09133e-06
-7.09837e-05
-8.09995e-06
-6.98704e-05
-1.00737e-05
-6.84049e-05
-1.20004e-05
-6.65856e-05
-1.38682e-05
-6.44168e-05
-1.56642e-05
-6.19051e-05