/*--------------------------------*- C++ -*----------------------------------*\
| =========                 |                                                 |
| \\      /  F ield         | OpenFOAM: The Open Source CFD Toolbox           |
|  \\    /   O peration     | Version:  5.x                                   |
|   \\  /    A nd           | Web:      www.OpenFOAM.org                      |
|    \\/     M anipulation  |                                                 |
\*---------------------------------------------------------------------------*/
FoamFile
{
    version     2.0;
    format      ascii;
    class       volVectorField;
    location    "0.2";
    object      U;
}
// * * * * * * * * * * * * * * * * * * * * * * * * * * * * * * * * * * * * * //

dimensions      [0 1 -1 0 0 0 0];

internalField   nonuniform List<vector> 
2268
(
(0.00413571 -0.0054315 0)
(0.0494476 -0.0152008 0)
(0.122081 -0.0170845 0)
(0.194068 -0.0158416 0)
(0.258864 -0.0144753 0)
(0.318377 -0.0138046 0)
(0.37632 -0.0137257 0)
(0.434931 -0.0139471 0)
(0.494787 -0.0142083 0)
(0.555549 -0.0143247 0)
(0.61633 -0.0141647 0)
(0.675736 -0.0136052 0)
(0.731799 -0.012493 0)
(0.781796 -0.0106281 0)
(0.821861 -0.00764614 0)
(0.846863 -0.00243015 0)
(0.844678 0.00856903 0)
(0.791141 0.0274625 0)
(0.664196 0.053605 0)
(0.441656 0.0794712 0)
(0.134093 0.0823215 0)
(-0.228531 -0.0198758 0)
(-0.168175 -0.152944 0)
(0.00435392 -0.0165452 0)
(0.0502222 -0.0457185 0)
(0.12304 -0.0513917 0)
(0.194863 -0.0477543 0)
(0.259513 -0.0436819 0)
(0.319102 -0.0416799 0)
(0.37729 -0.0414674 0)
(0.436231 -0.0421549 0)
(0.496468 -0.0429571 0)
(0.557669 -0.0433316 0)
(0.61898 -0.0428917 0)
(0.679059 -0.0412652 0)
(0.735986 -0.0379929 0)
(0.78714 -0.0324525 0)
(0.829085 -0.0237025 0)
(0.857192 -0.00976075 0)
(0.871266 0.0130083 0)
(0.876456 0.0492969 0)
(0.8628 0.102261 0)
(0.788817 0.168695 0)
(0.59678 0.216384 0)
(0.205867 0.163036 0)
(0.136433 -0.0896029 0)
(0.00472445 -0.0279528 0)
(0.0511772 -0.0761423 0)
(0.123754 -0.0854806 0)
(0.194783 -0.0794709 0)
(0.258717 -0.0727267 0)
(0.318001 -0.0694577 0)
(0.37622 -0.0691895 0)
(0.43538 -0.070397 0)
(0.495958 -0.0717737 0)
(0.55762 -0.0724461 0)
(0.619565 -0.0717926 0)
(0.680528 -0.0691994 0)
(0.738701 -0.0639081 0)
(0.791603 -0.0548985 0)
(0.83599 -0.0407878 0)
(0.867549 -0.0197545 0)
(0.881155 0.00976276 0)
(0.872678 0.0526982 0)
(0.847386 0.116228 0)
(0.812887 0.207483 0)
(0.764364 0.301887 0)
(0.519529 0.29492 0)
(0.294408 0.0511342 0)
(0.00532162 -0.03975 0)
(0.0526104 -0.106534 0)
(0.12477 -0.119241 0)
(0.194696 -0.110815 0)
(0.25768 -0.101525 0)
(0.316589 -0.0971674 0)
(0.374913 -0.0969936 0)
(0.43445 -0.098818 0)
(0.495577 -0.100841 0)
(0.557969 -0.101897 0)
(0.620897 -0.101154 0)
(0.683209 -0.0977722 0)
(0.743263 -0.0907105 0)
(0.798777 -0.0785859 0)
(0.846645 -0.0595859 0)
(0.882663 -0.0315487 0)
(0.902179 0.00823255 0)
(0.899277 0.0627518 0)
(0.870502 0.135045 0)
(0.813172 0.229596 0)
(0.772822 0.3482 0)
(0.632048 0.403094 0)
(0.378275 0.261834 0)
(0.00617854 -0.0521117 0)
(0.0545031 -0.136926 0)
(0.125996 -0.152511 0)
(0.19449 -0.141598 0)
(0.256314 -0.129979 0)
(0.3148 -0.124803 0)
(0.373292 -0.124921 0)
(0.433324 -0.127484 0)
(0.495147 -0.130249 0)
(0.558458 -0.131808 0)
(0.622628 -0.131147 0)
(0.686664 -0.127229 0)
(0.749148 -0.118748 0)
(0.808038 -0.103946 0)
(0.860402 -0.0805329 0)
(0.902119 -0.0457975 0)
(0.928597 0.00317907 0)
(0.93433 0.0693787 0)
(0.914715 0.155374 0)
(0.855184 0.258572 0)
(0.776185 0.387234 0)
(0.65339 0.503902 0)
(0.410111 0.494375 0)
(0.00736897 -0.0653245 0)
(0.0567936 -0.1673 0)
(0.127293 -0.185155 0)
(0.194037 -0.171701 0)
(0.254532 -0.158049 0)
(0.312567 -0.152393 0)
(0.37127 -0.153035 0)
(0.431854 -0.15647 0)
(0.49444 -0.160089 0)
(0.558767 -0.162305 0)
(0.624343 -0.161961 0)
(0.69039 -0.157855 0)
(0.75577 -0.148444 0)
(0.818692 -0.131578 0)
(0.876403 -0.104426 0)
(0.924922 -0.063743 0)
(0.959682 -0.00622105 0)
(0.975229 0.0712799 0)
(0.96606 0.171829 0)
(0.919299 0.293428 0)
(0.822399 0.437969 0)
(0.671581 0.608827 0)
(0.416666 0.739299 0)
(0.00891455 -0.0794292 0)
(0.0593278 -0.197586 0)
(0.128482 -0.217122 0)
(0.193216 -0.201117 0)
(0.25227 -0.185741 0)
(0.309838 -0.179935 0)
(0.368764 -0.181315 0)
(0.4299 -0.18574 0)
(0.493245 -0.190309 0)
(0.558611 -0.193321 0)
(0.625683 -0.193523 0)
(0.69396 -0.189586 0)
(0.762605 -0.179739 0)
(0.830071 -0.161424 0)
(0.893817 -0.13128 0)
(0.950144 -0.085575 0)
(0.994747 -0.0208274 0)
(1.02202 0.0669885 0)
(1.0252 0.181726 0)
(0.993777 0.325686 0)
(0.90587 0.498833 0)
(0.734065 0.71406 0)
(0.463406 0.982436 0)
(0.0107045 -0.0944095 0)
(0.0618745 -0.227884 0)
(0.129372 -0.248382 0)
(0.19197 -0.229846 0)
(0.249559 -0.213102 0)
(0.306649 -0.207462 0)
(0.365765 -0.209756 0)
(0.427398 -0.215254 0)
(0.491446 -0.220846 0)
(0.557826 -0.224765 0)
(0.626451 -0.225705 0)
(0.697131 -0.222234 0)
(0.769326 -0.2123 0)
(0.841754 -0.192868 0)
(0.912187 -0.160084 0)
(0.977272 -0.109879 0)
(1.03308 -0.0384214 0)
(1.07394 0.0586371 0)
(1.09284 0.186253 0)
(1.08001 0.350814 0)
(1.01292 0.560298 0)
(0.859153 0.831249 0)
(0.453174 1.29612 0)
(-0.00069452 -0.00303183 0)
(0.00893115 -0.000386249 0)
(0.00850904 0.000739465 0)
(0.0101211 -0.00058448 0)
(0.0196233 -0.00150493 0)
(0.0295757 -0.00191994 0)
(0.0402303 -0.00178942 0)
(0.0490626 -0.00140809 0)
(0.0554533 -0.000948366 0)
(0.0589862 -0.000429987 0)
(0.0597495 0.000136982 0)
(0.0580164 0.000561112 0)
(0.0541562 0.000954147 0)
(0.0484725 0.0012151 0)
(0.0413677 0.00150339 0)
(0.0332138 0.00164687 0)
(0.0242071 0.0017893 0)
(0.0147095 0.00188526 0)
(0.00489684 0.00194749 0)
(-0.0206913 -0.00100676 0)
(-0.0102588 -0.00236232 0)
(-0.00316472 -0.00129629 0)
(0.00526306 -0.00478203 0)
(0.0191788 -0.00642492 0)
(0.0317486 -0.00727303 0)
(0.0446638 -0.00667037 0)
(0.0553658 -0.00521539 0)
(0.0629899 -0.00340753 0)
(0.0672236 -0.00151793 0)
(0.0681746 0.000367124 0)
(0.0662316 0.00186978 0)
(0.0618475 0.00320637 0)
(0.0553787 0.00419794 0)
(0.0472774 0.00510167 0)
(0.0379367 0.00567173 0)
(0.0276747 0.00613823 0)
(0.016801 0.00643057 0)
(0.0055474 0.00649687 0)
(-0.0216551 0.00520824 0)
(-0.00836096 -0.00543693 0)
(-0.00135005 -0.00441063 0)
(0.00509381 -0.0100032 0)
(0.0188782 -0.0118204 0)
(0.0314984 -0.0129619 0)
(0.0446304 -0.0117701 0)
(0.0553009 -0.00916951 0)
(0.0628288 -0.00591215 0)
(0.0669871 -0.00254858 0)
(0.0678469 0.000634101 0)
(0.0658366 0.00329009 0)
(0.0614429 0.00558932 0)
(0.0549966 0.00737736 0)
(0.046939 0.00885689 0)
(0.0376523 0.00990797 0)
(0.0274754 0.0107074 0)
(0.0166854 0.0111658 0)
(0.00550831 0.0113041 0)
(-0.0228337 0.0117506 0)
(-0.0131399 -0.00740536 0)
(-0.00318458 -0.00650081 0)
(0.00268198 -0.0146792 0)
(0.0179553 -0.0172367 0)
(0.0313081 -0.0188118 0)
(0.0453418 -0.0169146 0)
(0.0564695 -0.013061 0)
(0.0641425 -0.00836919 0)
(0.0682484 -0.00354236 0)
(0.0689173 0.000867349 0)
(0.0666894 0.00472118 0)
(0.0620931 0.00795601 0)
(0.0554725 0.0105148 0)
(0.0472798 0.0125386 0)
(0.0378848 0.0140687 0)
(0.0276249 0.0151907 0)
(0.0167625 0.0158262 0)
(0.00553682 0.0160023 0)
(-0.0306491 0.0154144 0)
(-0.0242461 -0.0106114 0)
(-0.00708401 -0.00997386 0)
(-0.00125704 -0.0201155 0)
(0.0166975 -0.0232532 0)
(0.0311928 -0.0251988 0)
(0.0465243 -0.0224897 0)
(0.0583348 -0.0171608 0)
(0.0662426 -0.0109055 0)
(0.0702771 -0.00450611 0)
(0.0707478 0.0012275 0)
(0.0682721 0.00629649 0)
(0.0633819 0.0103889 0)
(0.0564835 0.013744 0)
(0.0480645 0.0163038 0)
(0.0384762 0.0183117 0)
(0.0280214 0.0197123 0)
(0.0169892 0.0205546 0)
(0.00561402 0.020771 0)
(-0.0377118 0.0317589 0)
(-0.0336852 -0.00795367 0)
(-0.012884 -0.0153886 0)
(-0.00850716 -0.0262966 0)
(0.0143535 -0.0301486 0)
(0.0309426 -0.0321813 0)
(0.0480839 -0.0284872 0)
(0.0607702 -0.021459 0)
(0.0689748 -0.0134451 0)
(0.0729438 -0.00536824 0)
(0.0731259 0.0017785 0)
(0.070271 0.00800091 0)
(0.0650144 0.0129814 0)
(0.0577975 0.0170612 0)
(0.0490772 0.0202322 0)
(0.0392317 0.0226244 0)
(0.0285294 0.0243252 0)
(0.0172893 0.0253683 0)
(0.00571199 0.0256116 0)
(-0.0564185 0.0323056 0)
(-0.0461566 -0.0145335 0)
(-0.0258869 -0.0203081 0)
(-0.0212098 -0.0351405 0)
(0.00943106 -0.0390504 0)
(0.0301294 -0.0403207 0)
(0.0499113 -0.0351491 0)
(0.0637568 -0.0260623 0)
(0.0723061 -0.0159472 0)
(0.0761716 -0.00613769 0)
(0.0759887 0.0024675 0)
(0.0726885 0.00981732 0)
(0.0669659 0.0157702 0)
(0.0593697 0.0205558 0)
(0.0502869 0.0242555 0)
(0.0401185 0.0270601 0)
(0.0291449 0.0290457 0)
(0.0176431 0.0302612 0)
(0.00582614 0.0305508 0)
(-0.0462755 0.0683683 0)
(-0.0827616 0.00440284 0)
(-0.0379253 -0.0291983 0)
(-0.0359038 -0.043345 0)
(0.00370336 -0.0509816 0)
(0.0296297 -0.0500633 0)
(0.0525462 -0.0426423 0)
(0.0676605 -0.0310891 0)
(0.0764241 -0.0184927 0)
(0.0800178 -0.00685698 0)
(0.0793581 0.00329798 0)
(0.0755316 0.011765 0)
(0.0692862 0.0186756 0)
(0.0611912 0.0241911 0)
(0.0516927 0.0283849 0)
(0.0411651 0.0316176 0)
(0.0298438 0.0338684 0)
(0.0180606 0.0352714 0)
(0.00596933 0.0355956 0)
(0.0134799 -0.12043 0)
(0.06544 -0.275208 0)
(0.12998 -0.295045 0)
(0.189202 -0.272786 0)
(0.244626 -0.255104 0)
(0.300983 -0.250634 0)
(0.360237 -0.254808 0)
(0.422411 -0.262262 0)
(0.487356 -0.269803 0)
(0.555239 -0.275715 0)
(0.626432 -0.278736 0)
(0.701278 -0.277261 0)
(0.779787 -0.268758 0)
(0.861417 -0.249528 0)
(0.944644 -0.214885 0)
(1.0263 -0.159757 0)
(1.1026 -0.0794133 0)
(1.16712 0.0312885 0)
(1.21337 0.178163 0)
(1.2384 0.368283 0)
(1.21441 0.621099 0)
(1.22153 0.918588 0)
(1.0861 1.53776 0)
(0.0171071 -0.158692 0)
(0.0699348 -0.338198 0)
(0.13013 -0.354672 0)
(0.184587 -0.327921 0)
(0.237246 -0.310562 0)
(0.292697 -0.308853 0)
(0.351928 -0.316182 0)
(0.414483 -0.326697 0)
(0.480321 -0.337443 0)
(0.550069 -0.347056 0)
(0.624881 -0.354505 0)
(0.705858 -0.357923 0)
(0.794059 -0.35458 0)
(0.890633 -0.340296 0)
(0.995218 -0.308402 0)
(1.10415 -0.251224 0)
(1.21324 -0.162894 0)
(1.31668 -0.0348105 0)
(1.40523 0.137185 0)
(1.47992 0.370853 0)
(1.52 0.663162 0)
(1.58833 0.94973 0)
(1.63089 1.36094 0)
(0.0207737 -0.201526 0)
(0.0735511 -0.398405 0)
(0.128561 -0.408576 0)
(0.178096 -0.378855 0)
(0.228191 -0.364047 0)
(0.282559 -0.366368 0)
(0.341087 -0.377377 0)
(0.4031 -0.391364 0)
(0.468801 -0.406125 0)
(0.539503 -0.421028 0)
(0.617146 -0.435285 0)
(0.703198 -0.447125 0)
(0.800194 -0.455058 0)
(0.912182 -0.453536 0)
(1.04056 -0.431117 0)
(1.17988 -0.378698 0)
(1.32683 -0.294089 0)
(1.47073 -0.160523 0)
(1.61195 0.0182516 0)
(1.74331 0.222758 0)
(1.81343 0.482921 0)
(1.83109 0.797181 0)
(1.86465 1.13234 0)
(0.0241058 -0.248105 0)
(0.075753 -0.455119 0)
(0.125067 -0.457098 0)
(0.169958 -0.426412 0)
(0.217715 -0.415877 0)
(0.270562 -0.422719 0)
(0.327514 -0.437438 0)
(0.387922 -0.455077 0)
(0.452262 -0.474661 0)
(0.522615 -0.496239 0)
(0.600606 -0.519174 0)
(0.687103 -0.542662 0)
(0.787441 -0.566965 0)
(0.910793 -0.583643 0)
(1.05925 -0.57849 0)
(1.22188 -0.546931 0)
(1.39261 -0.503031 0)
(1.56517 -0.414003 0)
(1.6893 -0.264906 0)
(1.76527 0.0487285 0)
(1.8432 0.435423 0)
(1.87422 0.766611 0)
(1.89204 1.04428 0)
(0.02687 -0.297507 0)
(0.0763613 -0.507197 0)
(0.11972 -0.500065 0)
(0.160457 -0.470685 0)
(0.205965 -0.465623 0)
(0.256635 -0.476996 0)
(0.311048 -0.495255 0)
(0.368463 -0.516698 0)
(0.429595 -0.541642 0)
(0.496337 -0.569905 0)
(0.567719 -0.601167 0)
(0.645444 -0.634868 0)
(0.740763 -0.67738 0)
(0.868663 -0.724729 0)
(1.02503 -0.757056 0)
(1.18384 -0.750199 0)
(1.32095 -0.715917 0)
(1.42788 -0.504412 0)
(1.55065 -0.179082 0)
(1.66138 0.100591 0)
(1.71634 0.432958 0)
(1.78113 0.785025 0)
(1.84032 1.04103 0)
(0.0289881 -0.348912 0)
(0.0754992 -0.55415 0)
(0.112763 -0.538148 0)
(0.149899 -0.512301 0)
(0.192964 -0.51322 0)
(0.240441 -0.528639 0)
(0.290806 -0.549861 0)
(0.342622 -0.57455 0)
(0.396947 -0.603229 0)
(0.45335 -0.634583 0)
(0.509855 -0.668998 0)
(0.574306 -0.70908 0)
(0.664503 -0.788785 0)
(0.79772 -0.894864 0)
(0.960896 -0.948516 0)
(1.10179 -0.895927 0)
(1.22762 -0.778114 0)
(1.32996 -0.582669 0)
(1.4501 -0.165384 0)
(1.59013 0.132854 0)
(1.66235 0.5083 0)
(1.727 0.815628 0)
(1.7877 1.01408 0)
(0.0305955 -0.401672 0)
(0.0732992 -0.595582 0)
(0.104004 -0.572 0)
(0.137755 -0.551414 0)
(0.177417 -0.557774 0)
(0.219699 -0.57578 0)
(0.263122 -0.598127 0)
(0.305354 -0.623448 0)
(0.348565 -0.651422 0)
(0.390748 -0.68207 0)
(0.438435 -0.719063 0)
(0.504956 -0.785527 0)
(0.621421 -0.940067 0)
(0.796473 -1.08524 0)
(0.979883 -1.09096 0)
(1.15852 -0.998547 0)
(1.35907 -0.792084 0)
(1.43835 -0.561181 0)
(1.36796 -0.334285 0)
(1.31677 -0.180101 0)
(1.49376 0.199705 0)
(1.72851 0.701224 0)
(1.80928 0.97953 0)
(0.0318822 -0.453629 0)
(0.0694493 -0.6287 0)
(0.0920811 -0.599758 0)
(0.122018 -0.585463 0)
(0.156209 -0.595369 0)
(0.19062 -0.613466 0)
(0.22453 -0.634596 0)
(0.25668 -0.658343 0)
(0.293352 -0.686904 0)
(0.338636 -0.726839 0)
(0.418796 -0.791514 0)
(0.560073 -0.924664 0)
(0.779491 -1.13471 0)
(1.02575 -1.24668 0)
(1.13373 -1.17109 0)
(1.2276 -1.13287 0)
(1.36644 -0.913112 0)
(1.23068 -0.554136 0)
(1.00552 -0.23764 0)
(0.932976 -0.122144 0)
(1.06334 0.00189729 0)
(1.39563 0.449091 0)
(1.60319 0.887449 0)
(0.0340043 -0.504451 0)
(0.0645952 -0.651174 0)
(0.075535 -0.620408 0)
(0.101692 -0.613856 0)
(0.129818 -0.625532 0)
(0.158167 -0.642997 0)
(0.189695 -0.664835 0)
(0.229643 -0.695276 0)
(0.295944 -0.743197 0)
(0.419123 -0.827681 0)
(0.613787 -0.961557 0)
(0.968562 -1.15267 0)
(1.24233 -1.34582 0)
(1.28592 -1.31126 0)
(1.11553 -1.24396 0)
(0.975355 -1.20552 0)
(1.07499 -0.861214 0)
(0.907777 -0.295392 0)
(0.701576 -0.106687 0)
(0.660919 -0.214183 0)
(0.673297 -0.205382 0)
(0.920102 0.212728 0)
(1.16922 0.702476 0)
(0.0392949 -0.560102 0)
(0.0638155 -0.669304 0)
(0.0603433 -0.642161 0)
(0.08853 -0.645946 0)
(0.121408 -0.660548 0)
(0.165202 -0.682945 0)
(0.234091 -0.7204 0)
(0.338904 -0.781485 0)
(0.519612 -0.895188 0)
(0.853594 -1.06408 0)
(1.1749 -1.30718 0)
(1.35747 -1.43014 0)
(1.41635 -1.45524 0)
(1.3006 -1.13161 0)
(0.950313 -1.09033 0)
(0.7509 -1.10376 0)
(0.772446 -0.784414 0)
(0.683949 -0.154906 0)
(0.536692 -0.0386089 0)
(0.461298 -0.193745 0)
(0.385155 -0.247953 0)
(0.522544 0.0317476 0)
(0.774747 0.413462 0)
(0.0438584 -0.62135 0)
(0.079874 -0.686688 0)
(0.0806614 -0.666337 0)
(0.131398 -0.688121 0)
(0.205115 -0.716815 0)
(0.322938 -0.77147 0)
(0.548655 -0.876598 0)
(0.74461 -0.979839 0)
(0.975501 -1.21516 0)
(1.17888 -1.3642 0)
(1.36881 -1.50184 0)
(1.48847 -1.49999 0)
(1.46759 -1.30591 0)
(1.32461 -0.821711 0)
(0.88148 -0.865792 0)
(0.675029 -0.963827 0)
(0.627547 -0.691925 0)
(0.533566 -0.0681439 0)
(0.393898 0.0428294 0)
(0.313328 -0.130332 0)
(0.233709 -0.239389 0)
(0.297286 -0.148157 0)
(0.525559 0.0620155 0)
(0.0296099 -0.700062 0)
(0.113479 -0.704293 0)
(0.193712 -0.695395 0)
(0.278635 -0.756912 0)
(0.386966 -0.829525 0)
(0.501607 -0.962534 0)
(0.627016 -1.04687 0)
(0.775673 -1.18751 0)
(0.939109 -1.37321 0)
(1.10847 -1.54402 0)
(1.28488 -1.6335 0)
(1.38187 -1.53267 0)
(1.34843 -1.19995 0)
(1.2699 -0.562876 0)
(0.882746 -0.572257 0)
(0.619038 -0.789529 0)
(0.532669 -0.548492 0)
(0.402679 0.048093 0)
(0.238596 0.117819 0)
(0.195181 -0.0681906 0)
(0.149372 -0.212405 0)
(0.195733 -0.25591 0)
(0.364772 -0.210489 0)
(0.0181699 -0.740202 0)
(0.0718872 -0.753206 0)
(0.166056 -0.792973 0)
(0.248292 -0.858826 0)
(0.326175 -0.940725 0)
(0.407791 -1.04923 0)
(0.49366 -1.17135 0)
(0.593434 -1.32796 0)
(0.725425 -1.53232 0)
(0.88247 -1.727 0)
(1.03523 -1.77378 0)
(1.04785 -1.5749 0)
(0.991701 -1.13177 0)
(1.00064 -0.386962 0)
(0.759865 -0.343083 0)
(0.506777 -0.604261 0)
(0.395303 -0.35413 0)
(0.20024 0.217363 0)
(0.0548614 0.168324 0)
(0.0608205 -0.0397117 0)
(0.0427207 -0.211684 0)
(0.0988357 -0.34817 0)
(0.233308 -0.425145 0)
(0.0219046 -0.7863 0)
(0.0663281 -0.871851 0)
(0.122237 -0.880177 0)
(0.178051 -0.930405 0)
(0.228747 -1.01003 0)
(0.277765 -1.11424 0)
(0.32699 -1.24691 0)
(0.391092 -1.43203 0)
(0.479184 -1.67304 0)
(0.575127 -1.86358 0)
(0.620093 -1.83206 0)
(0.552002 -1.54068 0)
(0.47286 -1.04994 0)
(0.554054 -0.328554 0)
(0.516497 -0.246958 0)
(0.318519 -0.436938 0)
(0.166382 -0.145763 0)
(-0.138785 0.397926 0)
(-0.136222 0.186077 0)
(-0.117874 -0.035908 0)
(-0.109729 -0.231077 0)
(-0.0665467 -0.429688 0)
(0.00774068 -0.582346 0)
(0.0226648 -0.829541 0)
(0.0513329 -0.907231 0)
(0.0749657 -0.918917 0)
(0.10609 -0.968931 0)
(0.131622 -1.04444 0)
(0.150806 -1.14462 0)
(0.161994 -1.27984 0)
(0.178192 -1.48064 0)
(0.182976 -1.72634 0)
(0.166995 -1.87492 0)
(0.0997744 -1.77753 0)
(-0.000183194 -1.4548 0)
(-0.0423838 -0.994808 0)
(0.106271 -0.337992 0)
(0.149299 -0.271072 0)
(0.00344932 -0.23339 0)
(-0.322764 0.214407 0)
(-0.444197 0.440731 0)
(-0.345012 0.151988 0)
(-0.31505 -0.0479871 0)
(-0.29992 -0.243167 0)
(-0.297421 -0.453148 0)
(-0.32459 -0.627998 0)
(0.0153435 -0.862384 0)
(0.0275293 -0.917809 0)
(0.032821 -0.937006 0)
(0.0428721 -0.984215 0)
(0.0443326 -1.05162 0)
(0.034278 -1.14059 0)
(0.00724232 -1.26476 0)
(-0.0345434 -1.44924 0)
(-0.12344 -1.66397 0)
(-0.246995 -1.7779 0)
(-0.378523 -1.68606 0)
(-0.492601 -1.40168 0)
(-0.487044 -0.993333 0)
(-0.340126 -0.527021 0)
(-0.382173 -0.258306 0)
(-0.49676 0.0869533 0)
(-0.757813 0.402531 0)
(-0.651523 0.331386 0)
(-0.531998 0.0849867 0)
(-0.494615 -0.0675178 0)
(-0.484806 -0.23054 0)
(-0.519453 -0.406512 0)
(-0.610545 -0.582478 0)
(0.00555965 -0.878113 0)
(0.00415628 -0.915093 0)
(-0.00267441 -0.937702 0)
(-0.0107002 -0.978047 0)
(-0.0292891 -1.03341 0)
(-0.0631487 -1.10486 0)
(-0.117321 -1.20306 0)
(-0.205763 -1.34596 0)
(-0.359496 -1.51447 0)
(-0.554867 -1.61745 0)
(-0.74321 -1.57076 0)
(-0.897919 -1.32825 0)
(-0.949564 -0.895953 0)
(-0.971483 -0.435982 0)
(-1.09477 -0.104966 0)
(-1.07531 0.201635 0)
(-0.986124 0.333059 0)
(-0.782095 0.151361 0)
(-0.67551 0.0152782 0)
(-0.634023 -0.0878868 0)
(-0.630282 -0.205548 0)
(-0.677971 -0.328522 0)
(-0.787133 -0.462783 0)
(-0.00298639 -0.875366 0)
(-0.0149847 -0.903934 0)
(-0.0316059 -0.923781 0)
(-0.0537109 -0.955598 0)
(-0.086 -0.997805 0)
(-0.133805 -1.04922 0)
(-0.202104 -1.11352 0)
(-0.308125 -1.20564 0)
(-0.479298 -1.32206 0)
(-0.706127 -1.40147 0)
(-0.948579 -1.36962 0)
(-1.16782 -1.18977 0)
(-1.31929 -0.862289 0)
(-1.37707 -0.455563 0)
(-1.34536 -0.103564 0)
(-1.21601 0.0872583 0)
(-1.0118 0.0889499 0)
(-0.838868 -0.00789232 0)
(-0.762712 -0.0462444 0)
(-0.724848 -0.107434 0)
(-0.727695 -0.179641 0)
(-0.776702 -0.251312 0)
(-0.878969 -0.322685 0)
(-0.00861279 -0.86048 0)
(-0.029572 -0.883938 0)
(-0.0544462 -0.899362 0)
(-0.0854947 -0.922713 0)
(-0.125935 -0.952595 0)
(-0.179879 -0.986234 0)
(-0.250335 -1.022 0)
(-0.348711 -1.06816 0)
(-0.499854 -1.12831 0)
(-0.70921 -1.16786 0)
(-0.943247 -1.12937 0)
(-1.15138 -0.976625 0)
(-1.28694 -0.727364 0)
(-1.31895 -0.458107 0)
(-1.24502 -0.248555 0)
(-1.09654 -0.135855 0)
(-0.940901 -0.110687 0)
(-0.844069 -0.104712 0)
(-0.795359 -0.0952481 0)
(-0.769058 -0.122342 0)
(-0.778807 -0.154535 0)
(-0.824558 -0.183981 0)
(-0.908925 -0.202321 0)
(-0.0123603 -0.837378 0)
(-0.039992 -0.856648 0)
(-0.0708732 -0.867617 0)
(-0.107322 -0.88358 0)
(-0.151744 -0.903054 0)
(-0.206965 -0.92333 0)
(-0.273874 -0.940554 0)
(-0.356846 -0.955475 0)
(-0.471606 -0.97177 0)
(-0.627708 -0.977608 0)
(-0.8053 -0.941812 0)
(-0.963417 -0.84083 0)
(-1.06277 -0.682412 0)
(-1.0827 -0.503968 0)
(-1.0307 -0.354439 0)
(-0.943355 -0.259654 0)
(-0.868372 -0.201338 0)
(-0.823626 -0.153317 0)
(-0.793146 -0.12779 0)
(-0.778408 -0.12822 0)
(-0.79191 -0.129877 0)
(-0.831512 -0.12783 0)
(-0.896331 -0.110277 0)
(-0.0148175 -0.808198 0)
(-0.0469316 -0.824539 0)
(-0.0816655 -0.831459 0)
(-0.121012 -0.8413 0)
(-0.166729 -0.8525 0)
(-0.220729 -0.863006 0)
(-0.283264 -0.869319 0)
(-0.354357 -0.868696 0)
(-0.4392 -0.861309 0)
(-0.544294 -0.845147 0)
(-0.663046 -0.808096 0)
(-0.772751 -0.734189 0)
(-0.84826 -0.624024 0)
(-0.876248 -0.500079 0)
(-0.86381 -0.388664 0)
(-0.834626 -0.301907 0)
(-0.807994 -0.233978 0)
(-0.786059 -0.179931 0)
(-0.768252 -0.146022 0)
(-0.763784 -0.126293 0)
(-0.778193 -0.107049 0)
(-0.809827 -0.0834372 0)
(-0.857189 -0.0442974 0)
(-0.0163027 -0.775366 0)
(-0.0510718 -0.789343 0)
(-0.0879176 -0.792982 0)
(-0.128376 -0.797992 0)
(-0.173732 -0.802842 0)
(-0.22525 -0.805983 0)
(-0.283291 -0.805072 0)
(-0.347087 -0.797374 0)
(-0.416646 -0.780627 0)
(-0.493573 -0.752896 0)
(-0.576298 -0.710613 0)
(-0.654658 -0.648857 0)
(-0.714238 -0.567218 0)
(-0.747234 -0.47499 0)
(-0.757661 -0.38676 0)
(-0.756109 -0.310691 0)
(-0.749285 -0.246117 0)
(-0.739245 -0.193466 0)
(-0.731563 -0.153597 0)
(-0.733451 -0.120564 0)
(-0.746688 -0.0878713 0)
(-0.770702 -0.0506298 0)
(-0.802991 6.53256e-05 0)
(-0.017066 -0.740522 0)
(-0.0530317 -0.752627 0)
(-0.0905947 -0.753708 0)
(-0.130898 -0.755024 0)
(-0.174855 -0.755177 0)
(-0.223247 -0.752893 0)
(-0.276382 -0.746543 0)
(-0.333929 -0.734268 0)
(-0.394992 -0.713901 0)
(-0.458309 -0.683509 0)
(-0.521896 -0.641837 0)
(-0.58143 -0.587683 0)
(-0.630157 -0.521325 0)
(-0.663033 -0.447662 0)
(-0.68089 -0.374879 0)
(-0.688595 -0.308638 0)
(-0.690099 -0.249699 0)
(-0.68857 -0.198067 0)
(-0.688451 -0.153613 0)
(-0.693368 -0.112935 0)
(-0.704608 -0.0723843 0)
(-0.721862 -0.0274561 0)
(-0.742475 0.0284565 0)
(-0.0172526 -0.704973 0)
(-0.0533155 -0.71557 0)
(-0.0905473 -0.714745 0)
(-0.129812 -0.713319 0)
(-0.171719 -0.7101 0)
(-0.216727 -0.704047 0)
(-0.264895 -0.693912 0)
(-0.315966 -0.678474 0)
(-0.369286 -0.656448 0)
(-0.423361 -0.626313 0)
(-0.475883 -0.586989 0)
(-0.524082 -0.538561 0)
(-0.564732 -0.482282 0)
(-0.595138 -0.421038 0)
(-0.615066 -0.35936 0)
(-0.626821 -0.300884 0)
(-0.633393 -0.246534 0)
(-0.637549 -0.19623 0)
(-0.641884 -0.149565 0)
(-0.648042 -0.105132 0)
(-0.657076 -0.0605086 0)
(-0.668872 -0.0120473 0)
(-0.680971 0.0449182 0)
(-0.0169978 -0.669698 0)
(-0.0523645 -0.679076 0)
(-0.0885216 -0.676881 0)
(-0.12616 -0.673481 0)
(-0.165638 -0.667911 0)
(-0.207216 -0.659369 0)
(-0.250792 -0.646937 0)
(-0.29599 -0.629682 0)
(-0.342264 -0.606722 0)
(-0.388616 -0.577218 0)
(-0.433258 -0.540648 0)
(-0.473993 -0.497236 0)
(-0.508818 -0.448175 0)
(-0.536372 -0.395545 0)
(-0.556569 -0.341911 0)
(-0.570646 -0.289321 0)
(-0.580424 -0.238699 0)
(-0.587726 -0.19024 0)
(-0.59403 -0.14357 0)
(-0.600408 -0.0979133 0)
(-0.607577 -0.0517627 0)
(-0.615198 -0.00247516 0)
(-0.621387 0.0531747 0)
(-0.0164266 -0.635371 0)
(-0.0505297 -0.643779 0)
(-0.0851139 -0.640629 0)
(-0.120746 -0.635865 0)
(-0.157614 -0.628713 0)
(-0.195839 -0.618575 0)
(-0.235288 -0.604795 0)
(-0.2756 -0.586713 0)
(-0.31621 -0.563716 0)
(-0.356258 -0.535298 0)
(-0.394518 -0.501303 0)
(-0.429534 -0.462112 0)
(-0.459976 -0.418594 0)
(-0.485044 -0.372064 0)
(-0.504716 -0.324129 0)
(-0.519662 -0.276127 0)
(-0.530956 -0.228801 0)
(-0.539646 -0.182425 0)
(-0.546668 -0.136828 0)
(-0.552762 -0.0915689 0)
(-0.558251 -0.0455222 0)
(-0.562843 0.00293812 0)
(-0.565094 0.0560275 0)
(-0.0156458 -0.602467 0)
(-0.048082 -0.610125 0)
(-0.0807739 -0.606334 0)
(-0.114167 -0.600669 0)
(-0.148357 -0.592504 0)
(-0.183362 -0.581408 0)
(-0.219031 -0.56691 0)
(-0.255037 -0.54857 0)
(-0.290898 -0.526017 0)
(-0.325899 -0.498962 0)
(-0.359115 -0.467333 0)
(-0.389597 -0.431455 0)
(-0.416537 -0.392072 0)
(-0.439398 -0.350179 0)
(-0.458067 -0.306767 0)
(-0.472877 -0.262626 0)
(-0.484474 -0.218336 0)
(-0.493557 -0.174179 0)
(-0.50067 -0.13017 0)
(-0.506195 -0.0860385 0)
(-0.51033 -0.0411988 0)
(-0.512831 0.0054923 0)
(-0.512578 0.0554612 0)
(-0.0147365 -0.571325 0)
(-0.0452279 -0.57842 0)
(-0.0758333 -0.574218 0)
(-0.106867 -0.567994 0)
(-0.138378 -0.559229 0)
(-0.170321 -0.547633 0)
(-0.202536 -0.532878 0)
(-0.234728 -0.514665 0)
(-0.266499 -0.49275 0)
(-0.297316 -0.466984 0)
(-0.3265 -0.437418 0)
(-0.353334 -0.404361 0)
(-0.377252 -0.36834 0)
(-0.397927 -0.330025 0)
(-0.415284 -0.290107 0)
(-0.42949 -0.24918 0)
(-0.440868 -0.207674 0)
(-0.449753 -0.16584 0)
(-0.456504 -0.123781 0)
(-0.461462 -0.0813278 0)
(-0.464568 -0.0382213 0)
(-0.465612 0.0061561 0)
(-0.463853 0.0528477 0)
(-0.0137512 -0.542167 0)
(-0.0421159 -0.548837 0)
(-0.070523 -0.544394 0)
(-0.0991557 -0.537856 0)
(-0.128034 -0.528786 0)
(-0.157082 -0.517 0)
(-0.18614 -0.502273 0)
(-0.21496 -0.484418 0)
(-0.243203 -0.463301 0)
(-0.270441 -0.438858 0)
(-0.296177 -0.411151 0)
(-0.319918 -0.380424 0)
(-0.341255 -0.347102 0)
(-0.359917 -0.311705 0)
(-0.375823 -0.274731 0)
(-0.389074 -0.236596 0)
(-0.399841 -0.197597 0)
(-0.408303 -0.157952 0)
(-0.414567 -0.117887 0)
(-0.418802 -0.0774225 0)
(-0.421164 -0.0363436 0)
(-0.421352 0.00559797 0)
(-0.418711 0.0491199 0)
(-0.0127207 -0.515146 0)
(-0.0388554 -0.52148 0)
(-0.0650067 -0.51692 0)
(-0.0912471 -0.510236 0)
(-0.117564 -0.501066 0)
(-0.143878 -0.489299 0)
(-0.170028 -0.474789 0)
(-0.195804 -0.457423 0)
(-0.220928 -0.437127 0)
(-0.245068 -0.413896 0)
(-0.267851 -0.387821 0)
(-0.288905 -0.359111 0)
(-0.307928 -0.328076 0)
(-0.324713 -0.295106 0)
(-0.339167 -0.260607 0)
(-0.351316 -0.224908 0)
(-0.361227 -0.188221 0)
(-0.368985 -0.150739 0)
(-0.374726 -0.112674 0)
(-0.378477 -0.0742199 0)
(-0.380233 -0.0353086 0)
(-0.379831 0.00430395 0)
(-0.376808 0.0449037 0)
(-0.0116637 -0.49034 0)
(-0.035528 -0.496385 0)
(-0.0594044 -0.491797 0)
(-0.0832894 -0.48508 0)
(-0.107129 -0.475949 0)
(-0.130856 -0.464336 0)
(-0.154314 -0.450154 0)
(-0.177324 -0.433344 0)
(-0.199656 -0.413878 0)
(-0.221048 -0.391782 0)
(-0.241213 -0.36715 0)
(-0.259876 -0.34016 0)
(-0.276802 -0.311065 0)
(-0.291822 -0.280164 0)
(-0.304842 -0.247771 0)
(-0.315843 -0.214164 0)
(-0.324859 -0.179548 0)
(-0.331937 -0.144128 0)
(-0.337107 -0.108107 0)
(-0.340332 -0.0715981 0)
(-0.341622 -0.0346953 0)
(-0.34089 0.00265781 0)
(-0.3378 0.0406115 0)
(-0.0105951 -0.467765 0)
(-0.0321959 -0.473547 0)
(-0.0538061 -0.468992 0)
(-0.075385 -0.462318 0)
(-0.0968357 -0.453316 0)
(-0.118108 -0.441941 0)
(-0.139051 -0.42815 0)
(-0.159516 -0.411918 0)
(-0.179312 -0.39325 0)
(-0.198228 -0.37219 0)
(-0.216044 -0.348835 0)
(-0.232546 -0.323341 0)
(-0.247552 -0.295915 0)
(-0.260922 -0.266803 0)
(-0.272564 -0.236261 0)
(-0.282431 -0.204526 0)
(-0.290536 -0.171786 0)
(-0.296898 -0.138203 0)
(-0.301469 -0.103971 0)
(-0.304219 -0.0693092 0)
(-0.305212 -0.034365 0)
(-0.304355 0.00088639 0)
(-0.301367 0.0364907 0)
(-0.0095283 -0.447394 0)
(-0.0289032 -0.452935 0)
(-0.0482768 -0.44845 0)
(-0.067603 -0.441868 0)
(-0.0867509 -0.433048 0)
(-0.105683 -0.421958 0)
(-0.124262 -0.408587 0)
(-0.14236 -0.392931 0)
(-0.15982 -0.375015 0)
(-0.176473 -0.354896 0)
(-0.192143 -0.33267 0)
(-0.206664 -0.308475 0)
(-0.21989 -0.28249 0)
(-0.231705 -0.25492 0)
(-0.242028 -0.225987 0)
(-0.250802 -0.195898 0)
(-0.257997 -0.164833 0)
(-0.263615 -0.132928 0)
(-0.267652 -0.100361 0)
(-0.270085 -0.0674082 0)
(-0.270878 -0.0342532 0)
(-0.269967 -0.000878115 0)
(-0.267196 0.0326805 0)
(-0.00847373 -0.429204 0)
(-0.0256745 -0.434533 0)
(-0.0428554 -0.430136 0)
(-0.0599832 -0.423673 0)
(-0.07691 -0.415058 0)
(-0.0936037 -0.404272 0)
(-0.109944 -0.391319 0)
(-0.12582 -0.376213 0)
(-0.141104 -0.358992 0)
(-0.155658 -0.339719 0)
(-0.169342 -0.318487 0)
(-0.182025 -0.295423 0)
(-0.193589 -0.270683 0)
(-0.203937 -0.244448 0)
(-0.213 -0.21691 0)
(-0.220725 -0.18826 0)
(-0.227073 -0.158669 0)
(-0.232018 -0.128276 0)
(-0.23554 -0.0972503 0)
(-0.237638 -0.0658398 0)
(-0.238304 -0.0342571 0)
(-0.237464 -0.00253338 0)
(-0.23499 0.0292603 0)
(-0.00743382 -0.41317 0)
(-0.0225128 -0.418322 0)
(-0.0375531 -0.414022 0)
(-0.0525367 -0.407689 0)
(-0.0673184 -0.399286 0)
(-0.0818635 -0.3888 0)
(-0.0960703 -0.376246 0)
(-0.109845 -0.361648 0)
(-0.123081 -0.345053 0)
(-0.135668 -0.326526 0)
(-0.147495 -0.306161 0)
(-0.158456 -0.284074 0)
(-0.168456 -0.260406 0)
(-0.177415 -0.235316 0)
(-0.185274 -0.20898 0)
(-0.191988 -0.181579 0)
(-0.197516 -0.153281 0)
(-0.201827 -0.124215 0)
(-0.204906 -0.0945236 0)
(-0.206747 -0.0644456 0)
(-0.207318 -0.0342343 0)
(-0.206589 -0.00399095 0)
(-0.204473 0.0262789 0)
(-0.00639726 -0.399195 0)
(-0.0193991 -0.404204 0)
(-0.0323623 -0.400006 0)
(-0.0452554 -0.39381 0)
(-0.0579638 -0.385621 0)
(-0.0704403 -0.375427 0)
(-0.0826037 -0.363248 0)
(-0.094374 -0.349116 0)
(-0.105666 -0.33308 0)
(-0.116391 -0.315209 0)
(-0.126462 -0.295592 0)
(-0.135795 -0.27434 0)
(-0.144313 -0.251584 0)
(-0.151951 -0.227469 0)
(-0.15866 -0.202154 0)
(-0.164403 -0.17581 0)
(-0.16915 -0.148608 0)
(-0.172866 -0.120689 0)
(-0.175521 -0.0921697 0)
(-0.177108 -0.0632446 0)
(-0.177675 -0.0342006 0)
(-0.177152 -0.00520063 0)
(-0.1754 0.0237639 0)
(-0.00533346 -0.387202 0)
(-0.0162879 -0.392064 0)
(-0.0272568 -0.387963 0)
(-0.0381133 -0.381904 0)
(-0.0488176 -0.373921 0)
(-0.0593007 -0.364003 0)
(-0.0695025 -0.352172 0)
(-0.0793547 -0.338463 0)
(-0.0887891 -0.322926 0)
(-0.0977368 -0.305629 0)
(-0.10613 -0.286658 0)
(-0.113905 -0.266121 0)
(-0.121003 -0.244137 0)
(-0.127375 -0.220843 0)
(-0.132979 -0.196387 0)
(-0.137785 -0.170929 0)
(-0.141774 -0.144635 0)
(-0.144923 -0.117658 0)
(-0.147207 -0.090121 0)
(-0.148615 -0.06218 0)
(-0.14916 -0.0341248 0)
(-0.148844 -0.00613973 0)
(-0.147522 0.021734 0)
(-0.00420385 -0.377335 0)
(-0.0131072 -0.381943 0)
(-0.0221674 -0.377921 0)
(-0.0310307 -0.371984 0)
(-0.0397858 -0.364177 0)
(-0.048341 -0.354495 0)
(-0.0566575 -0.342961 0)
(-0.0646775 -0.329611 0)
(-0.0723449 -0.314497 0)
(-0.0796031 -0.297684 0)
(-0.0863979 -0.279257 0)
(-0.0926808 -0.259316 0)
(-0.09841 -0.237975 0)
(-0.103551 -0.215362 0)
(-0.108078 -0.191616 0)
(-0.111971 -0.166886 0)
(-0.115219 -0.141331 0)
(-0.117814 -0.115113 0)
(-0.119741 -0.0883627 0)
(-0.120987 -0.0612066 0)
(-0.121558 -0.0339031 0)
(-0.121486 -0.00676041 0)
(-0.12061 0.0202166 0)
(-0.00301188 -0.369818 0)
(-0.00982856 -0.3739 0)
(-0.0170193 -0.369951 0)
(-0.0239051 -0.36413 0)
(-0.0307266 -0.356466 0)
(-0.0373835 -0.346971 0)
(-0.0438583 -0.33567 0)
(-0.0501077 -0.322602 0)
(-0.056087 -0.307821 0)
(-0.061748 -0.291392 0)
(-0.067043 -0.273396 0)
(-0.0719287 -0.253927 0)
(-0.0763694 -0.233092 0)
(-0.0803392 -0.211012 0)
(-0.0838225 -0.187819 0)
(-0.0868141 -0.163654 0)
(-0.0893183 -0.138669 0)
(-0.091346 -0.113023 0)
(-0.092912 -0.0868598 0)
(-0.0940242 -0.0602918 0)
(-0.0946658 -0.0335381 0)
(-0.0948623 -0.00700778 0)
(-0.0944649 0.019252 0)
(-0.00184699 -0.365075 0)
(-0.00657368 -0.368209 0)