/*--------------------------------*- C++ -*----------------------------------*\
| =========                 |                                                 |
| \\      /  F ield         | OpenFOAM: The Open Source CFD Toolbox           |
|  \\    /   O peration     | Version:  5.x                                   |
|   \\  /    A nd           | Web:      www.OpenFOAM.org                      |
|    \\/     M anipulation  |                                                 |
\*---------------------------------------------------------------------------*/
FoamFile
{
    version     2.0;
    format      ascii;
    class       surfaceScalarField;
    location    "0.75";
    object      alphaPhi10;
}
// * * * * * * * * * * * * * * * * * * * * * * * * * * * * * * * * * * * * * //

dimensions      [0 3 -1 0 0 0 0];

internalField   nonuniform List<scalar> 
4432
(
-3.89409e-06
3.89409e-06
-8.1537e-06
4.25961e-06
-1.15984e-05
3.44471e-06
-1.45838e-05
2.98541e-06
-1.6835e-05
2.25121e-06
-1.71176e-05
2.82516e-07
-1.51457e-05
-1.97182e-06
-1.21987e-05
-2.94702e-06
-9.89756e-06
-2.30117e-06
-8.79791e-06
-1.09965e-06
-8.74649e-06
-5.14205e-08
-9.48143e-06
7.34942e-07
-1.07497e-05
1.26825e-06
-1.24327e-05
1.683e-06
-1.43862e-05
1.9535e-06
-1.59234e-05
1.5372e-06
-1.60672e-05
4.7875e-07
-1.73938e-05
2.0307e-06
-2.42988e-05
5.59126e-06
-2.76508e-05
3.352e-06
-2.37563e-05
-3.89449e-06
-1.24862e-05
-1.12701e-05
-1.24957e-05
-5.37822e-06
9.27231e-06
-9.66134e-06
8.54273e-06
-1.27502e-05
6.53362e-06
-1.55692e-05
5.80435e-06
-1.76686e-05
4.35064e-06
-1.78869e-05
5.00744e-07
-1.58556e-05
-4.00312e-06
-1.26384e-05
-6.16414e-06
-1.00506e-05
-4.88899e-06
-8.75702e-06
-2.39325e-06
-8.42007e-06
-3.88375e-07
-8.65597e-06
9.70836e-07
-9.27305e-06
1.88533e-06
-1.0195e-05
2.60494e-06
-1.15415e-05
3.29998e-06
-1.36884e-05
3.68432e-06
-1.65219e-05
3.97589e-06
-1.98363e-05
6.17167e-06
-2.36098e-05
8.05571e-06
-2.20339e-05
1.77777e-06
-1.67294e-05
-8.79949e-06
-8.98781e-06
-1.88259e-05
-2.14835e-05
-4.65931e-06
1.39316e-05
-8.30485e-06
1.21883e-05
-1.14002e-05
9.62897e-06
-1.46825e-05
9.08661e-06
-1.73759e-05
7.04411e-06
-1.79342e-05
1.05898e-06
-1.61606e-05
-5.77671e-06
-1.32072e-05
-9.11754e-06
-1.06759e-05
-7.4203e-06
-9.31109e-06
-3.75802e-06
-8.9486e-06
-7.50874e-07
-9.07482e-06
1.09706e-06
-9.29572e-06
2.10623e-06
-9.33243e-06
2.64166e-06
-9.14057e-06
3.10812e-06
-9.30387e-06
3.84763e-06
-1.05755e-05
5.2987e-06
-1.18507e-05
7.93665e-06
-1.14359e-05
8.02936e-06
-9.9603e-06
2.17686e-07
-7.12082e-06
-1.17234e-05
-3.43752e-06
-2.26531e-05
-2.49211e-05
-3.29254e-06
1.72242e-05
-6.25857e-06
1.51543e-05
-9.17538e-06
1.25458e-05
-1.2134e-05
1.20452e-05
-1.43385e-05
9.24867e-06
-1.4848e-05
1.5684e-06
-1.38734e-05
-6.75127e-06
-1.23587e-05
-1.06322e-05
-1.10077e-05
-8.77134e-06
-1.0075e-05
-4.69069e-06
-9.79195e-06
-1.03393e-06
-9.9853e-06
1.29041e-06
-1.02593e-05
2.38018e-06
-1.02119e-05
2.59431e-06
-9.54032e-06
2.43653e-06
-8.28474e-06
2.59205e-06
-6.61855e-06
3.63251e-06
-4.26425e-06
5.58237e-06
-1.2665e-06
5.03361e-06
8.56813e-07
-1.92441e-06
1.30115e-06
-1.22639e-05
1.26271e-06
-2.30517e-05
-2.36619e-05
-1.50184e-06
1.8726e-05
-3.26844e-06
1.69209e-05
-5.33402e-06
1.46114e-05
-7.08008e-06
1.37913e-05
-7.93553e-06
1.01041e-05
-7.9787e-06
1.61156e-06
-8.34343e-06
-6.38654e-06
-9.34506e-06
-9.63062e-06
-1.03919e-05
-7.72447e-06
-1.07445e-05
-4.3381e-06
-1.0787e-05
-9.91496e-07
-1.09826e-05
1.48606e-06
-1.12302e-05
2.62782e-06
-1.11785e-05
2.54255e-06
-1.05046e-05
1.76261e-06
-9.0393e-06
1.12678e-06
-6.47247e-06
1.06568e-06
-2.51402e-06
1.62392e-06
2.13653e-06
3.8306e-07
5.22067e-06
-5.00855e-06
4.99529e-06
-1.25858e-05
3.15964e-06
-2.12161e-05
-2.05023e-05
7.29387e-07
1.79966e-05
7.28498e-07
1.69218e-05
9.11026e-08
1.52487e-05
-2.46814e-07
1.41292e-05
6.53567e-07
9.20374e-06
8.4453e-07
1.4206e-06
-1.1568e-06
-4.38521e-06
-5.20175e-06
-5.58567e-06
-8.9617e-06
-3.96453e-06
-1.1065e-05
-2.23482e-06
-1.17809e-05
-2.75584e-07
-1.20586e-05
1.76371e-06
-1.22197e-05
2.78891e-06
-1.20612e-05
2.38409e-06
-1.12624e-05
9.63784e-07
-9.76537e-06
-3.70216e-07
-7.42963e-06
-1.27006e-06
-4.02792e-06
-1.7778e-06
-4.90844e-08
-3.59577e-06
3.30912e-06
-8.36677e-06
3.86719e-06
-1.31439e-05
2.8263e-06
-2.01752e-05
-1.7676e-05
2.65265e-06
1.5344e-05
4.70516e-06
1.48693e-05
6.55654e-06
1.33974e-05
8.73657e-06
1.19492e-05
1.01669e-05
7.7734e-06
8.85331e-06
2.7342e-06
3.82002e-06
6.48079e-07
-2.39175e-06
6.26091e-07
-7.72426e-06
1.36799e-06
-1.10884e-05
1.12937e-06
-1.26085e-05
1.24452e-06
-1.3149e-05
2.30416e-06
-1.32836e-05
2.92351e-06
-1.29999e-05
2.10038e-06
-1.19519e-05
-8.42181e-08
-1.02203e-05
-2.10178e-06
-7.89053e-06
-3.59984e-06
-5.02352e-06
-4.64481e-06
-1.94887e-06
-6.67043e-06
5.85895e-07
-1.09015e-05
1.69589e-06
-1.42538e-05
1.81661e-06
-2.02959e-05
-1.58594e-05
4.85019e-06
1.04938e-05
1.00363e-05
7.9863e-06
1.36545e-05
7.28491e-06
1.55585e-05
7.16467e-06
1.41364e-05
6.30238e-06
9.23966e-06
5.71139e-06
2.6142e-06
6.28605e-06
-3.58363e-06
6.61807e-06
-7.97524e-06
5.75959e-06
-1.07989e-05
3.95298e-06
-1.26166e-05
3.06227e-06
-1.37285e-05
3.41608e-06
-1.42403e-05
3.43529e-06
-1.41358e-05
1.99592e-06
-1.29308e-05
-1.2893e-06
-1.08832e-05
-4.14935e-06
-8.25902e-06
-6.224e-06
-5.39695e-06
-7.50689e-06
-2.63555e-06
-9.43182e-06
-5.14627e-07
-1.30225e-05
9.44724e-07
-1.57132e-05
1.56958e-06
-2.09208e-05
-1.42898e-05
-2.07508e-05
1.96564e-05
-4.73796e-05
2.66288e-05
-5.22449e-05
4.86246e-06
-4.07438e-05
-1.1501e-05
-2.20755e-05
-1.86684e-05
4.79006e-06
-2.71428e-05
1.84395e-05
-1.5948e-05
1.18984e-05
5.46863e-06
-1.11094e-05
2.38456e-05
-5.87355e-05
4.76261e-05
-0.000103411
4.46759e-05
-0.000127147
2.37353e-05
-0.00012288
-8.65104e-07
-8.59535e-05
-2.82021e-05
-5.4118e-05
-2.69384e-05
-4.94998e-05
-4.61815e-06
-4.2645e-05
-6.8548e-06
-1.92724e-05
-2.33727e-05
-1.97891e-05
-2.88464e-05
4.83061e-05
-4.44337e-05
4.22163e-05
-4.01548e-05
5.8441e-07
-2.84053e-05
-2.32503e-05
-1.21558e-05
-3.49176e-05
9.46236e-06
-4.87609e-05
1.64097e-05
-2.28952e-05
-1.23946e-05
3.51498e-05
-6.92903e-05
8.1494e-05
-0.000114541
9.28822e-05
-0.000113721
4.96874e-05
-8.51078e-05
1.39419e-05
-6.55544e-05
-1.17061e-05
-2.58743e-05
-7.96634e-05
-9.1589e-06
-5.48553e-05
-2.69223e-05
4.89069e-06
-3.98968e-05
2.3273e-06
-2.7717e-05
-2.80849e-05
-4.75061e-05
-2.30992e-05
7.25477e-05
-3.17409e-05
5.08581e-05
-2.66019e-05
-4.55402e-06
-1.70429e-05
-3.28098e-05
-6.39185e-06
-4.55693e-05
3.14149e-06
-5.82941e-05
-1.16515e-05
-8.30743e-06
-5.81465e-05
8.13729e-05
-0.00010051
0.000123655
-6.09223e-05
5.39428e-05
-3.22041e-05
8.73977e-06
-3.42979e-05
1.21692e-07
-3.2863e-05
-3.55695e-05
1.72502e-05
-0.000185873
4.45667e-05
-0.000151615
3.25467e-05
-9.57954e-06
1.47575e-05
2.62757e-06
-1.40077e-05
5.99423e-06
-1.72048e-05
-1.30318e-05
8.56921e-05
-1.49139e-05
5.35319e-05
-1.10414e-05
-7.89178e-06
-4.89945e-06
-3.79301e-05
-4.18207e-06
-4.63025e-05
-1.10427e-05
-5.14348e-05
-4.53231e-05
2.56483e-05
-8.75943e-05
0.000123316
-4.84873e-05
8.17983e-05
-1.51063e-05
1.32079e-05
-1.12879e-05
3.26881e-06
-2.97188e-05
-9.99656e-06
-6.29686e-06
-0.000178629
2.60645e-05
-0.000217872
5.75893e-05
-0.000182916
4.54385e-05
-7.03869e-05
5.76922e-06
2.41109e-05
-1.32244e-06
1.47143e-05
2.48805e-06
-1.35016e-06
8.70422e-05
3.32103e-06
4.88696e-05
4.52908e-06
-7.92951e-06
8.81722e-06
-3.73051e-05
-2.48763e-06
-3.49646e-05
-2.73734e-05
-2.6554e-05
-6.81544e-05
6.64409e-05
-5.96513e-05
0.00011458
-1.34385e-05
3.16886e-05
-5.92571e-06
5.10764e-06
-4.35969e-06
7.20016e-07
-2.50178e-05
-7.2548e-06
1.48968e-05
-0.000236379
2.78179e-05
-0.000230656
3.76477e-05
-0.000192276
5.85677e-05
-0.000108127
1.32781e-05
4.44628e-05
-3.06939e-06
1.97979e-05
-5.416e-05
9.30427e-06
7.7738e-05
1.46174e-05
3.00242e-05
1.75565e-05
-1.35504e-05
2.37058e-05
-3.7567e-05
4.09289e-07
-1.15529e-05
-3.88339e-05
1.27136e-05
-7.70835e-05
0.000105163
-2.33214e-05
6.35802e-05
-5.01486e-06
1.27977e-05
-1.57737e-06
1.53745e-06
-1.13498e-06
-3.9066e-07
-4.27558e-06
-4.78061e-06
1.95617e-05
-0.000259537
2.35505e-05
-0.000234538
2.54024e-05
-0.00019347
3.01242e-05
-0.00011031
5.46546e-07
5.19614e-05
-1.60088e-05
2.71151e-05
-0.000133764
1.36878e-05
6.40503e-05
2.15029e-05
1.516e-05
3.65573e-05
-2.42962e-05
3.52146e-05
-3.1277e-05
3.29099e-06
2.05045e-05
-4.19463e-05
5.80475e-05
-5.92109e-05
0.00012654
-9.72907e-06
2.37387e-05
-1.42768e-06
4.35255e-06
-3.97134e-07
4.71478e-07
-3.54154e-07
-5.01854e-07
6.80123e-06
-2.51322e-05
1.79585e-05
-0.000266102
1.69336e-05
-0.000232834
1.61246e-05
-0.000191624
5.76045e-06
-2.16553e-05
9.68208e-07
2.24963e-05
-1.93952e-05
4.07945e-05
-0.00015817
2.10472e-05
2.59017e-05
3.52558e-05
3.65689e-07
4.89969e-05
-3.5858e-05
3.183e-05
-1.55593e-05
4.25507e-06
4.74291e-05
-3.63154e-05
9.90222e-05
-2.86219e-05
0.000128656
-3.32791e-06
1.13083e-05
-3.4863e-07
1.33845e-06
-1.36945e-07
2.13289e-07
-6.70013e-07
-2.56713e-07
2.0167e-05
-0.000112208
1.6149e-05
-0.000258619
1.01951e-05
-0.00022572
9.69629e-06
-0.000188893
-2.53043e-07
-1.34591e-06
-3.35794e-07
8.88798e-06
-1.21976e-05
4.8993e-05
-0.000115257
-3.46237e-07
-1.21814e-07
-2.50506e-06
-4.28038e-07
-4.26444e-06
-4.0694e-07
-6.20272e-06
-2.57319e-07
-1.00666e-05
3.40454e-07
-1.62764e-05
1.80151e-06
-2.23776e-05
3.32001e-06
-2.57108e-05
3.61578e-06
-2.62824e-05
3.34235e-06
-2.58633e-05
2.83017e-06
-2.65443e-05
3.7433e-06
-2.79706e-05
4.84238e-06
-2.93991e-05
4.86378e-06
-2.93242e-05
1.921e-06
-2.62679e-05
-4.34547e-06
-2.16219e-05
-8.79509e-06
-1.59414e-05
-1.1904e-05
-9.95478e-06
-1.3493e-05
-4.16365e-06
-1.52227e-05
8.74194e-07
-1.80603e-05
5.68717e-06
-2.05258e-05
7.70809e-06
-2.29415e-05
-1.96156e-05
1.30339e-05
-4.06542e-06
-1.01127e-07
-4.97185e-06
2.19342e-08
-6.02188e-06
-4.88188e-08
-7.06444e-06
-9.93977e-08
-9.02164e-06
-3.72463e-08
-1.35679e-05
7.00803e-08
-1.98622e-05
-1.87393e-08
-2.62981e-05
-2.16614e-07
-3.03761e-05
-1.23594e-06
-3.10389e-05
-2.85803e-06
-2.87107e-05
-3.51708e-06
-2.52043e-05
-1.70409e-06
-2.22559e-05
1.29114e-08
-2.26062e-05
5.30583e-07
-2.31094e-05
-3.45216e-06
-2.07338e-05
-7.97089e-06
-1.59547e-05
-1.28184e-05
-1.04301e-05
-1.75218e-05
-4.86131e-06
-2.11935e-05
1.31146e-06
-2.49203e-05
7.42365e-06
-2.66289e-05
1.0989e-05
-2.62557e-05
-2.26964e-05
1.41506e-05
-9.2546e-08
-8.54434e-09
-7.82657e-08
4.4717e-09
-1.30888e-07
8.16776e-10
-2.32985e-07
2.3595e-10
-2.73134e-07
6.37861e-10
-2.06403e-07
1.50745e-09
-2.25523e-07
-1.10089e-09
-4.41438e-07
-5.99579e-09
-2.0757e-06
-6.12412e-08
-8.53801e-06
-4.6792e-07
-1.53181e-05
-1.28756e-06
-1.99825e-05
-1.91481e-06
-2.6375e-05
-2.85204e-07
-3.95673e-05
-2.96412e-07
-5.16645e-05
-3.79094e-06
-5.58782e-05
-1.81818e-05
-5.49725e-05
-2.74216e-05
-5.17386e-05
-2.83358e-05
-4.37602e-05
-1.70672e-05
-3.3786e-05
-9.68907e-06
-2.23338e-05
-1.1893e-07
-1.62249e-05
-7.0036e-08
-3.71008e-08
-1.86604e-05
-7.71679e-09
-8.19794e-10
-4.09145e-09
4.67569e-10
-3.86679e-09
2.51406e-10
-3.93623e-09
9.18794e-11
-3.48524e-09
4.18137e-11
-2.1683e-09
4.43819e-11
-3.39388e-09
-4.52454e-12
-1.03822e-08
-9.4811e-11
-7.27278e-08
-2.91479e-10
-5.41651e-07
-2.70833e-09
-1.81103e-06
-3.13438e-08
-3.65461e-06
-1.39223e-07
-3.94924e-06
-3.27229e-07
-1.90892e-05
-7.25549e-07
-9.74356e-05
-1.21223e-05
-0.00013599
-2.42944e-05
-0.00014141
-2.00914e-05
-6.18641e-05
-7.33061e-06
-8.50047e-06
-1.35812e-06
-1.54586e-07
-2.37498e-07
-1.13794e-07
-1.5854e-07
-7.49501e-08
-1.0816e-07
-7.61557e-08
-3.52659e-08
-9.16859e-10
9.75914e-11
-3.01204e-10
3.47903e-11
-1.78459e-10
6.80941e-11
-1.1482e-10
9.97792e-12
-8.53297e-11
2.02524e-12
-5.02084e-11
9.50592e-13
-6.23068e-11
1.83037e-13
-1.72696e-10
-8.83883e-13
-4.93472e-10
-1.96895e-12
-3.23774e-09
-1.14917e-11
-3.46043e-08
-8.19836e-11
-1.70075e-07
-5.45096e-09
-4.97895e-07
-1.5373e-08
-6.62286e-06
-5.17652e-08
-2.43547e-05
-1.10688e-06
-2.65896e-05
-2.46451e-06
-5.31908e-06
-3.30449e-06
-2.35761e-06
-4.40654e-06
-1.66009e-06
-1.9245e-06
-7.12671e-07
-1.04105e-06
-3.04673e-07
-5.60186e-07
-1.48998e-07
-2.62653e-07
-1.67192e-07
-5.72412e-08
-5.92884e-11
1.57007e-10
-3.23678e-11
3.40694e-10
-9.5088e-12
2.19362e-11
-2.68766e-12
1.52415e-12
-1.44931e-12
1.88322e-13
-9.41825e-13
6.60405e-14
-1.13607e-12
1.30172e-14
-2.4445e-12
-1.40471e-13
-6.31071e-12
9.65668e-13
-2.49081e-11
3.31312e-12
-2.39631e-10
1.7608e-11
-2.2082e-09
-1.02748e-10
-1.66043e-08
1.56149e-11
-9.58672e-08
-9.03707e-11
-1.30158e-06
-1.08548e-08
-4.02966e-06
-2.21291e-07
-3.5039e-05
-1.03144e-06
-3.09399e-05
-4.68468e-06
-1.58563e-05
-8.2338e-06
-3.901e-06
-1.12706e-05
-1.09556e-06
-2.88796e-06
-5.31767e-07
-8.13404e-07
-4.24352e-07
-2.75467e-07
9.0308e-11
6.66968e-11
1.14472e-11
5.28818e-10
-2.76507e-14
4.89573e-11
2.19435e-15
8.65297e-13
-1.89429e-15
5.45496e-14
-1.01496e-14
3.23865e-14
-2.6622e-14
1.00568e-14
-8.72822e-14
5.11491e-14
-7.70771e-14
5.30717e-13
-4.95153e-12
5.98084e-12
-1.00542e-10
1.14901e-10
5.77672e-11
-2.83812e-11
-8.5273e-10
1.44998e-10
-7.59078e-09
1.66528e-09
-6.08801e-08
1.00741e-08
-4.82373e-07
2.42187e-08
-2.11022e-06
-1.94612e-07
-3.22231e-05
-3.10929e-06
-6.66329e-05
-1.9915e-05
-6.93014e-05
-2.28694e-05
-1.26602e-05
-2.95497e-05
-2.36138e-06
-1.09905e-05
-1.86456e-06
-9.36521e-07
6.06358e-11
6.06191e-12
8.95691e-11
1.48749e-10
1.42339e-12
1.01203e-10
7.21985e-14
2.18061e-12
1.13349e-14
7.35048e-14
2.08103e-15
1.43771e-14
-8.22448e-16
1.13032e-14
-8.28612e-15
3.73023e-14
-1.19175e-13
5.9262e-13
-2.73418e-11
3.07995e-11
-2.85428e-11
5.5688e-11
4.72702e-12
7.87715e-12
-6.2685e-14
2.24915e-11
5.32905e-10
2.43628e-10
1.07937e-09
1.87904e-09
-3.62924e-08
1.08891e-08
-4.85762e-07
2.32365e-08
-5.02036e-06
-6.34509e-07
-7.18156e-05
-9.0796e-06
-7.56603e-05
-3.46071e-05
-6.47815e-05
-3.76859e-05
-2.46976e-05
-4.04077e-05
-2.42135e-05
-3.63905e-06
5.60545e-12
4.56458e-13
2.98149e-11
4.31778e-12
1.93622e-11
1.45289e-11
1.31716e-13
7.88598e-12
9.65076e-15
1.7752e-13
3.14816e-15
1.83326e-14
7.83099e-16
1.11883e-14
-4.21975e-15
3.9758e-14
-2.83536e-12
5.0973e-12
-1.10666e-11
1.61372e-11
-4.68714e-12
-1.94151e-12
-5.90593e-12
6.64195e-12
9.22231e-12
2.33864e-12
7.04108e-11
3.68683e-11
3.07882e-10
2.37981e-10
-1.58008e-09
1.24522e-09
-3.41183e-08
4.66035e-09
-7.45701e-07
-1.81809e-09
-1.61164e-05
-1.29003e-06
-8.7252e-05
-1.66627e-05
-8.18679e-05
-3.85574e-05
-6.86459e-05
-4.86595e-05
-4.38329e-05
-4.62669e-05
4.48093e-13
8.36505e-15
2.74697e-12
4.44276e-13
2.47776e-12
1.00939e-13
8.65492e-13
3.6236e-13
1.06143e-14
2.80725e-13
4.51688e-15
1.64191e-14
7.91998e-16
1.24333e-14
-7.20805e-14
2.01686e-13
-1.12785e-12
3.1868e-12
-8.4506e-13
1.0708e-13
-1.12487e-12
-8.82865e-13
-2.95813e-12
7.99341e-12
3.27641e-12
5.44357e-12
7.14371e-12
3.98395e-12
-1.16012e-11
2.36909e-11
-7.0201e-10
6.5009e-11
-8.46001e-11
-5.393e-10
-5.72702e-09
-4.26278e-09
-1.22792e-06
-9.40821e-08
-2.18617e-05
-1.278e-06
-7.88472e-05
-1.6012e-05
-8.40084e-05
-3.80712e-05
-4.63993e-05
-7.61597e-05
7.94422e-15
4.20828e-16
2.72348e-13
7.08538e-14
1.56641e-13
3.2346e-14
5.98416e-14
6.61703e-15
1.50083e-14
3.98977e-14
2.30846e-15
1.29623e-14
2.87785e-15
1.43508e-14
-1.19179e-15
1.34853e-13
-3.41082e-14
1.59292e-14
-6.09044e-14
4.93194e-14
-1.02332e-12
1.17514e-12
-1.64812e-12
1.22262e-11
-1.05866e-12
7.22664e-12
2.88996e-13
1.68204e-13
-9.68855e-12
3.57194e-12
-1.73453e-10
1.49473e-11
-1.10854e-09
6.79573e-12
-4.67857e-09
-4.61724e-10
-8.04536e-08
-2.81329e-09
-1.28796e-06
-6.64439e-08
-1.63846e-05
-8.74051e-07
-5.83994e-05
-5.7517e-06
-2.39255e-05
-7.62402e-05
-7.7836e-16
6.68275e-15
1.3522e-14
1.19674e-14
1.37473e-14
9.98529e-15
3.86922e-15
5.2551e-15
2.34579e-15
4.2887e-15
1.37107e-15
8.29159e-15
1.79375e-15
1.51197e-14
3.95428e-15
3.71854e-14
-5.2011e-16
6.10154e-15
2.96127e-15
2.18206e-14
-1.17324e-12
1.28393e-12
-1.49019e-12
1.36308e-11
-6.96798e-13
6.0599e-12
-7.39014e-14
1.06202e-13
-1.09927e-12
5.68272e-13
-1.15968e-11
3.48927e-12
-6.86045e-11
1.22927e-11
-4.44729e-10
-1.25871e-11
-2.98507e-09
6.26202e-11
-6.25957e-08
-3.77954e-10
-8.72416e-07
-5.25456e-08
-6.51229e-06
-9.106e-08
-3.44269e-07
-3.00807e-05
3.56222e-18
4.35525e-15
1.11216e-15
3.4653e-15
1.01286e-15
2.5893e-15
4.5831e-16
1.23216e-15
3.726e-16
9.66228e-16
1.18469e-15
5.95859e-15
1.68425e-15
1.3016e-14
1.59511e-15
1.05723e-14
6.91013e-16
6.01415e-15
3.66653e-15
1.54436e-14
-3.20091e-14
3.27241e-13
-1.48937e-13
5.99708e-14
-7.95133e-14
6.69653e-14
-1.63189e-14
2.96092e-13
-5.05982e-14
1.06505e-13
1.92225e-14
6.95157e-13
2.26886e-12
2.79404e-12
-6.37601e-12
5.26513e-12
-3.30597e-10
1.73496e-10
-4.59961e-09
1.74602e-09
-1.9638e-08
-8.92101e-09
-4.96688e-08
-4.82592e-08
-1.21902e-09
-3.90452e-07
3.3676e-17
1.51858e-15
1.23106e-16
5.94625e-16
1.05671e-16
3.88663e-16
6.62365e-17
1.56474e-16
9.27773e-17
3.24497e-16
7.77314e-16
3.46105e-15
1.03035e-15
7.60993e-15
6.53595e-16
4.43272e-15
4.89002e-16
4.04232e-15
1.80895e-15
9.54357e-15
1.23937e-14
3.47278e-14
1.01444e-14
1.37705e-14
8.34186e-15
1.91238e-14
6.58703e-15
6.67514e-14
1.86075e-14
1.97791e-14
2.07518e-13
1.20247e-13
1.5064e-12
5.22588e-13
4.91009e-12
2.67175e-12
1.85589e-10
8.68519e-11
-2.24006e-08
7.16904e-09
-1.21686e-07
3.54123e-08
-2.04401e-09
-3.40277e-09
-3.54124e-10
-2.3483e-09
1.46287e-17
3.26841e-16
1.09518e-17
6.59164e-17
1.04433e-17
4.12901e-17
7.47547e-18
1.7959e-17
3.85222e-17
1.10304e-16
3.60057e-16
1.24326e-15
5.20926e-16
2.68411e-15
3.67339e-16
1.83883e-15
3.91649e-16
2.64783e-15
1.15557e-15
5.65836e-15
2.85762e-15
7.12201e-15
2.91786e-15
7.55866e-15
3.41644e-15
9.53853e-15
3.19265e-15
1.05373e-14
5.32115e-15
1.21656e-14
4.85076e-14
1.8431e-14
3.20714e-13
1.0131e-13
2.5009e-12
8.23248e-13
2.99072e-11
4.86047e-11
2.74961e-09
4.45258e-09
-1.18964e-07
6.52969e-08
-1.09783e-09
8.48491e-08
2.69431e-10
-1.79515e-09
3.26465e-18
4.96841e-17
1.09682e-18
7.23637e-18
1.07123e-18
4.42953e-18
8.52389e-19
2.20085e-18
1.22252e-17
2.91581e-17
1.0835e-16
2.65305e-16
1.66251e-16
5.78371e-16
1.46062e-16
5.67807e-16
3.67508e-16
1.59192e-15
6.71459e-16
3.37322e-15
7.69432e-16
2.26201e-15
9.8055e-16
3.09842e-15
1.17578e-15
3.78919e-15
1.1294e-15
3.22777e-15
1.88253e-15
5.97483e-15
8.46866e-15
8.72601e-15
6.55471e-14
2.09323e-14
7.42995e-13
1.78831e-13
4.10775e-11
8.54026e-12
1.55193e-09
2.94671e-09
-1.20065e-07
9.73471e-08
-1.10356e-07
1.34446e-07
9.44167e-08
-1.43067e-09
5.4209e-19
6.70079e-18
1.15626e-19
8.09077e-19
1.154e-19
4.7496e-19
1.04876e-19
2.85422e-19
2.94849e-18
5.73046e-18
2.2759e-17
4.2084e-17
3.90313e-17
9.17114e-17
4.67492e-17
1.2452e-16
2.40807e-16
7.21273e-16
3.91711e-16
1.66422e-15
2.7221e-16
8.41556e-16
3.77588e-16
9.43712e-16
4.51454e-16
1.08647e-15
4.48541e-16
1.03686e-15
1.09352e-15
2.56482e-15
2.08952e-15
3.81784e-15
1.11303e-14
6.88359e-15
1.57664e-13
3.61736e-14
7.20965e-12
1.5213e-12
2.65486e-09
2.99792e-10
-9.31595e-08
9.61498e-08
-1.38612e-07
2.39204e-07
1.26553e-07
-5.15921e-10
8.19612e-20
9.09505e-19
1.24351e-20
9.01983e-20
1.30475e-20
4.96278e-20
1.3967e-20
3.89206e-20
5.81689e-19
9.48957e-19
3.99473e-18
6.27442e-18
7.94342e-18
1.35697e-17
1.26337e-17
2.23531e-17
1.06065e-16
2.02931e-16
1.85271e-16
5.42858e-16
1.09764e-16
2.9886e-16
1.21189e-16
2.64007e-16
1.41729e-16
2.52518e-16
1.57232e-16
2.64337e-16
6.42932e-16
1.10017e-15
1.07695e-15
2.3991e-15
2.65121e-15
2.95127e-15
3.35721e-14
5.67494e-15
1.34579e-12
2.1296e-13
7.25705e-09
1.18431e-09
5.49747e-08
9.83596e-09
-5.82305e-08
1.72294e-07
2.4561e-07
-8.23158e-08
1.18533e-20
1.21738e-19
1.3319e-21
9.95442e-21
1.56876e-21
5.03631e-21
2.00655e-21
5.36957e-21
1.01936e-19
1.44295e-19
6.59491e-19
9.22733e-19
1.4171e-18
2.03861e-18
2.77647e-18
3.85593e-18
2.92069e-17
3.46322e-17
5.69499e-17
1.06832e-16
3.74806e-17
8.28051e-17
3.87212e-17
7.57176e-17
3.93892e-17
6.15539e-17
4.41772e-17
5.44059e-17
3.71054e-16
3.82226e-16
7.98393e-16
1.92864e-15
8.18283e-16
1.39731e-15
5.3078e-15
1.21689e-15
1.95474e-13
1.44094e-14
4.1637e-09
1.48286e-09
1.24476e-08
1.52799e-09
1.00359e-07
8.46256e-09
5.62238e-08
1.36255e-07
1.63464e-21
1.56425e-20
1.40057e-22
1.08716e-21
1.87108e-22
4.97515e-22
3.09491e-22
7.11688e-22
1.63169e-20
2.02363e-20
1.04179e-19
1.28956e-19
2.42869e-19
3.03832e-19
5.74113e-19
6.9099e-19
5.45941e-18
4.65321e-18
1.16967e-17
1.50821e-17
1.14963e-17
1.69656e-17
1.30625e-17
1.94905e-17
1.05928e-17
1.56428e-17
1.04909e-17
1.02495e-17
1.46637e-16
8.87428e-17
7.19599e-16
1.3723e-15
5.09218e-16
9.07111e-16
1.26126e-15
4.14277e-16
4.4051e-11
3.88204e-12
6.03733e-10
4.45604e-11
1.86512e-09
2.03487e-10
8.6177e-09
1.32032e-09
3.26828e-09
4.45824e-08
2.15081e-22
1.92477e-21
1.43867e-23
1.1744e-22
1.99443e-23
4.78864e-23
4.87879e-23
8.83453e-23
2.38979e-21
2.61126e-21
1.55026e-20
1.67609e-20
4.04847e-20
4.39143e-20
1.20615e-19
1.32193e-19
8.73872e-19
6.69401e-19
2.15272e-18
2.03322e-18
2.72613e-18
2.87915e-18
3.47335e-18
4.00847e-18
2.83183e-18
3.49174e-18
2.30683e-18
1.93608e-18
3.46642e-17
1.27535e-17
4.55943e-16
5.7058e-16
4.86923e-16
6.05845e-16
7.24748e-16
1.57897e-16
9.36863e-12
2.11833e-12
4.97744e-11
3.39452e-12
2.3483e-10
1.26946e-11
1.44211e-09
8.16615e-11
1.30551e-10
4.49467e-09
2.71089e-23
2.2761e-22
1.43903e-24
1.25051e-23
1.98795e-24
4.46983e-24
6.97711e-24
1.03484e-23
3.22187e-22
3.14047e-22
2.15333e-21
2.03234e-21
6.52336e-21
6.13099e-21
2.61452e-20
2.62854e-20
1.44336e-19
1.12067e-19
3.75068e-19
3.01316e-19
5.46933e-19
4.57558e-19
7.32889e-19
6.60466e-19
6.72594e-19
6.27848e-19
4.87412e-19
3.61201e-19
5.16922e-18
1.35028e-18
1.91878e-16
7.70891e-17
3.00881e-16
3.07197e-16
7.31406e-16
7.91907e-17
7.04998e-13
3.16902e-14
3.72147e-12
2.32395e-13
1.5504e-11
7.13934e-13
9.05933e-11
4.1501e-12
4.28098e-12
2.15206e-10
3.27678e-24
2.58598e-23
1.39289e-25
1.29569e-24
1.90974e-25
3.96968e-25
9.08726e-25
1.15178e-24
4.04031e-23
3.56633e-23
2.79071e-22
2.32208e-22
1.00415e-21
8.23366e-22
5.54932e-21
4.94941e-21
2.56814e-20
2.0075e-20
6.32824e-20
4.82243e-20
9.72938e-20
7.27768e-20
1.29314e-19
9.78666e-20
1.31963e-19
9.61435e-20
9.67129e-20
6.30985e-20
5.96179e-19
1.37955e-19
2.85037e-17
4.67769e-18
1.12885e-16
7.05389e-17
1.85935e-16
4.19146e-17
2.98539e-14
2.04589e-15
2.49159e-13
1.41208e-14
9.03706e-13
3.44868e-14
4.83392e-12
1.79354e-13
1.06668e-13
8.8135e-12
3.78386e-25
2.78921e-24
1.26572e-26
1.24318e-25
1.71161e-26
3.07686e-26
1.1003e-25
1.20269e-25
4.75149e-24
3.84825e-24
3.38167e-23
2.51751e-23
1.45177e-22
1.04678e-22
1.05533e-21
7.94365e-22
4.59423e-21
3.34851e-21
1.06374e-20
7.65394e-21
1.63876e-20
1.1459e-20
2.09334e-20
1.42952e-20
2.21468e-20
1.38937e-20
1.75606e-20
1.00586e-20
6.28459e-20
1.48886e-20
2.41119e-18
3.00314e-19
2.40289e-17
5.03549e-18
3.88821e-17
2.94796e-17
1.95574e-15
1.54487e-16
1.49162e-14
8.42269e-16
4.56288e-14
1.48537e-15
2.12919e-13
7.40008e-15
2.36734e-15
3.30171e-13
4.08765e-26
2.69953e-25
9.4825e-28
9.65472e-27
1.25075e-27
1.25026e-26
1.22415e-26
1.06554e-26
5.26706e-25
3.95898e-25
3.83956e-24
2.59938e-24
1.93474e-23
1.23676e-23
1.68272e-22
1.04601e-22
7.46398e-22
4.70976e-22
1.70181e-21
1.10008e-21
2.6189e-21
1.68047e-21
3.23969e-21
2.03669e-21
3.41531e-21
1.95088e-21
2.8752e-21
1.44931e-21
6.37525e-21
1.6323e-21
1.922e-19
2.19774e-20
2.38313e-18
2.35132e-19
1.76093e-17
4.34863e-18
1.68314e-16
2.49355e-17
1.01201e-15
7.34928e-17
2.53999e-15
1.39653e-16
9.39424e-15
2.34003e-16
1.30533e-16
1.16873e-14
3.78565e-27
2.26378e-26
2.29961e-28
7.44945e-27
4.47769e-29
1.02494e-27
1.06771e-27
1.14761e-27
5.53723e-26
3.90143e-26
4.09646e-25
2.56249e-25
2.35256e-24
1.35093e-24
2.24158e-23
1.18222e-23
1.03986e-22
5.56505e-23
2.44122e-22
1.36705e-22
3.82405e-22
2.16742e-22
4.67856e-22
2.66111e-22
4.92036e-22
2.54468e-22
4.12605e-22
1.88203e-22
6.19918e-22
1.67688e-22
1.46078e-20
1.5563e-21
1.60999e-19
1.40784e-20
1.96324e-18
1.7066e-19
1.97153e-17
2.02212e-18
7.88478e-17
5.94434e-18
1.80332e-16
1.49553e-17
3.84622e-16
1.49926e-17
1.75017e-17
5.01509e-16
4.88475e-28
1.71337e-26
-8.81525e-29
-1.4868e-27
-2.60433e-28
-2.94739e-27
3.52759e-28
5.34413e-28
5.54462e-27
3.63259e-27
4.12205e-26
2.41749e-26
2.62093e-25
1.37757e-25
2.60444e-24
1.22372e-24
1.25044e-23
5.85316e-24
3.0561e-23
1.48983e-23
4.92486e-23
2.43258e-23
6.04621e-23
3.0609e-23
6.40722e-23
2.93815e-23
5.14002e-23
2.1997e-23
5.429e-23
1.38415e-23
1.0242e-21
9.97614e-23
1.07061e-20
8.87935e-22
1.02961e-19
6.50878e-21
1.1911e-18
6.47733e-20
5.22049e-18
2.89322e-19
1.24844e-17
7.28905e-19
2.0399e-17
1.02961e-18
1.37983e-18
3.48098e-17
-1.21685e-28
-4.25754e-27
-1.28945e-28
-2.16824e-27
-2.15818e-28
-2.43083e-27
-7.04747e-30
-6.01248e-29
5.16781e-28
2.82341e-28
3.9381e-27
2.19125e-27
2.7078e-26
1.3288e-26
2.75412e-25
1.19802e-25
1.34553e-24
5.74611e-25
3.38054e-24
1.48162e-24
5.57035e-24
2.44905e-24
6.88067e-24
3.12114e-24
7.33673e-24
2.99081e-24
5.30396e-24
2.2272e-24
3.97717e-24
7.60561e-25
6.4202e-23
5.4045e-24
6.71153e-22
5.26203e-23
5.5259e-21
3.44051e-22
5.66158e-20
2.80037e-21
2.73543e-19
1.29522e-20
6.82186e-19
3.14573e-20
1.15171e-18
4.52279e-20
9.01196e-20
2.48937e-18
-2.05679e-28
-7.20527e-27
-7.80905e-29
-1.31689e-27
-1.21016e-28
-1.36527e-27
-1.78639e-29
-1.52692e-28
5.12903e-29
3.36241e-29
3.63372e-28
1.92538e-28
2.62312e-27
1.22285e-27
2.70941e-26
1.11638e-26
1.33277e-25
5.34991e-26
3.39243e-25
1.38191e-25
5.64759e-25
2.28642e-25
6.98793e-25
2.90881e-25
7.41507e-25
2.761e-25
4.75358e-25
1.87118e-25
2.12756e-25
5.62496e-25
3.29097e-24
8.66159e-25
3.9708e-23
2.92763e-24
3.03698e-22
1.87452e-23
2.75554e-21
1.35399e-22
1.31458e-20
5.88293e-22
3.334e-20
1.48536e-21
6.05177e-20
2.90882e-21
1.04984e-20
1.91692e-19
-1.42316e-28
-4.99854e-27
-3.66312e-29
-6.23418e-28
-5.57806e-29
-6.34542e-28
-1.28472e-29
-1.10816e-28
8.15482e-30
1.26221e-29
3.2435e-29
1.59886e-29
2.39843e-28
1.07779e-28
2.50245e-27
9.91874e-28
1.23229e-26
4.73877e-27
3.14931e-26
1.22144e-26
5.24638e-26
2.01228e-26
6.46902e-26
2.53408e-26
6.75803e-26
2.37175e-26
7.01582e-26
1.4681e-26
-3.18066e-25
-4.85723e-25
3.34806e-25
2.13287e-25
2.18861e-24
2.23663e-25
1.5974e-23
9.691e-25
1.31119e-22
6.46056e-24
6.05247e-22
2.61343e-23
1.83661e-21
8.94397e-23
5.94506e-21
4.7327e-22
2.89825e-21
3.18227e-20
-7.52557e-29
-2.64414e-27
-1.49296e-29
-2.58153e-28
-2.23678e-29
-2.58447e-28
-6.68929e-30
-5.86664e-29
3.34877e-32
2.00497e-32
2.61979e-30
1.0282e-30
2.08993e-29
9.1553e-30
2.18256e-28
8.4365e-29
1.07138e-27
4.00668e-28
2.73357e-27
1.02753e-27
4.52663e-27
1.67969e-27
5.54107e-27
2.08334e-27
5.65881e-27
1.91839e-27
5.70425e-27
1.1441e-27
-2.5401e-25
-3.96241e-25
-4.90545e-26
-6.68545e-26
1.20443e-25
5.41663e-26
8.20189e-25
4.90613e-26
6.03603e-24
3.00948e-25
2.76229e-23
1.17727e-24
1.42892e-22
9.2368e-24
1.21458e-21
1.21997e-22
9.76386e-22
8.9291e-21
-3.42933e-29
-1.19845e-27
-5.53448e-30
-9.78876e-29
-8.00323e-30
-9.47077e-29
-2.86941e-30
-2.57951e-29
-1.93524e-31
-1.3752e-30
2.89814e-31
1.94949e-31
1.77754e-30
7.59558e-31
1.80664e-29
6.90492e-30
8.80786e-29
3.24947e-29
2.23332e-28
8.26397e-29
3.65671e-28
1.33578e-28
4.4312e-28
1.62468e-28
4.40215e-28
1.46921e-28
4.33541e-28
8.40806e-29
-1.077e-25
-1.73299e-25
-4.1948e-26
-5.90193e-26
9.4422e-27
2.77612e-27
4.14017e-26
5.73102e-27
2.72546e-25
1.38695e-26
1.32836e-24
6.09327e-26
1.68774e-23
1.32093e-24
2.71911e-22
2.67098e-23
2.57135e-22
2.49685e-21
-1.40969e-29
-4.86856e-28
-1.91271e-30
-3.48064e-29
-2.59258e-30
-3.17127e-29
-1.06391e-30
-9.89258e-30
-1.1482e-31
-8.44309e-31
4.08134e-32
3.93157e-32
1.45153e-31
5.99427e-32
1.42495e-30
5.46309e-31
6.87912e-30
2.54071e-30
1.72637e-29
6.3864e-30
2.78172e-29
1.01732e-29
3.32961e-29
1.20814e-29
3.20466e-29
1.07091e-29
3.08922e-29
5.85548e-30
-3.3724e-26
-5.65001e-26
-1.64824e-26
-2.4164e-26
-2.19133e-27
-2.79851e-27
2.45428e-27
1.08541e-27
1.25518e-26
6.35839e-28
7.18117e-26
3.68871e-27
2.13299e-24
1.62142e-25
4.77052e-23
3.86983e-24
4.42418e-23
5.35864e-22
-5.326e-30
-1.81198e-28
-6.24691e-31
-1.17575e-29
-7.67866e-31
-9.80927e-30
-3.49414e-31
-3.39644e-30
-4.74474e-32
-3.65008e-31
-8.60864e-34
-5.42559e-33
1.15743e-32
3.79852e-33
1.07738e-31
4.20648e-32
5.12171e-31
1.92505e-31
1.26734e-30
4.76654e-31
2.00073e-30
7.45864e-31
2.3615e-30
8.6132e-31
2.19393e-30
7.46873e-31
2.07089e-30
3.89642e-31
-8.5797e-27
-1.51186e-26
-4.69627e-27
-7.2455e-27
-9.81171e-28
-1.31933e-27
8.87562e-29
1.54872e-29
5.79509e-28
2.43764e-29
4.185e-27
2.25093e-28
2.14468e-25
1.36077e-26
6.02527e-24
3.89486e-25
4.69901e-24
7.69688e-23
-1.86196e-30
-6.25212e-29
-1.93788e-31
-3.79672e-30
-2.09314e-31
-2.82717e-30
-1.03078e-31
-1.06159e-30
-1.60879e-32
-1.31305e-31
-8.78507e-34
-5.88169e-33
1.24969e-33
6.21938e-34
7.90514e-33
3.18808e-33
3.64108e-32
1.42115e-32
8.8506e-32
3.45342e-32
1.36279e-31
5.29128e-32
1.5842e-31
5.91781e-32
1.41536e-31
5.00869e-32
1.30797e-31
2.48958e-32
-1.85231e-27
-3.4796e-27
-1.07812e-27
-1.77377e-27
-2.64811e-28
-3.79805e-28
-2.24386e-29
-2.78608e-29
3.38813e-29
9.27163e-30
2.37505e-28
1.25205e-29
1.59127e-26
8.45557e-28
5.67057e-25
3.13096e-26
3.53464e-25
7.31001e-24
-6.03311e-31
-2.01376e-29
-5.70483e-32
-1.17424e-30
-5.27287e-32
-7.64931e-31
-2.7536e-32
-3.05788e-31
-4.70073e-33
-4.14645e-32
-3.54887e-34
-2.57284e-33
1.54518e-34
1.12532e-34
5.60508e-34
2.37383e-34
2.47094e-33
1.02768e-33
5.87788e-33
2.4419e-33
8.78288e-33
3.65106e-33
1.00465e-32
3.93902e-33
8.59439e-33
3.24548e-33
7.77107e-33
1.53385e-33
-3.47142e-28
-7.09233e-28
-2.0805e-28
-3.72404e-28
-5.46974e-29
-8.53734e-29
-6.82517e-30
-9.2229e-30
2.12501e-30
3.21448e-31
1.23948e-29
6.62959e-31
9.50688e-28
4.94271e-29
4.43058e-26
2.43217e-27
2.65915e-26
5.50326e-25
-1.80809e-31
-6.08151e-30
-1.58658e-32
-3.47539e-31
-1.23046e-32
-1.95601e-31
-6.69249e-33
-8.19691e-32
-1.20829e-33
-1.18025e-32
-1.06659e-34
-8.58734e-34
4.2629e-36
1.61101e-36
3.75213e-35
1.68711e-35
1.60023e-34
7.32038e-35
3.70561e-34
1.69473e-34
5.34037e-34
2.46384e-34
6.00891e-34
2.55442e-34
4.8954e-34
2.0424e-34
4.3269e-34
9.15617e-35
-5.71658e-29
-1.30762e-28
-3.44288e-29
-6.90561e-29
-9.23123e-30
-1.61594e-29
-1.30938e-30
-1.98587e-30
-3.89537e-32
-5.06415e-32
6.42001e-31
3.64012e-32
5.52302e-29
3.52503e-30
3.37124e-27
2.17219e-28
2.41249e-27
4.19744e-26
-4.99275e-32
-1.72784e-30
-4.13915e-33
-9.82264e-32
-2.66206e-33
-4.75606e-32
-1.48348e-33
-2.06183e-32
-2.75987e-34
-3.07953e-33
-2.64757e-35
-2.44507e-34
-5.98077e-37