/*--------------------------------*- C++ -*----------------------------------*\
| =========                 |                                                 |
| \\      /  F ield         | OpenFOAM: The Open Source CFD Toolbox           |
|  \\    /   O peration     | Version:  5.x                                   |
|   \\  /    A nd           | Web:      www.OpenFOAM.org                      |
|    \\/     M anipulation  |                                                 |
\*---------------------------------------------------------------------------*/
FoamFile
{
    version     2.0;
    format      ascii;
    class       volScalarField;
    location    "0.75";
    object      alpha.water;
}
// * * * * * * * * * * * * * * * * * * * * * * * * * * * * * * * * * * * * * //

dimensions      [0 0 0 0 0 0 0];

internalField   nonuniform List<scalar> 
2268
(
1
1
1
1
1
1
1
1
1
1
1
1
1
1
1
1
0.996403
0.927252
0.907444
1
1
1
0.999215
1
1
1
1
1
1
1
1
1
1
1
1
1
1
1
0.999998
0.992508
0.927201
0.922599
0.999987
0.988653
0.98752
1
1
1
1
1
1
1
1
1
1
1
1
1
1
1
1
1
0.999471
0.98873
0.962924
0.951992
0.951992
0.960545
1
1
1
1
1
1
1
1
1
1
1
1
1
1
1
1
1
1
0.999999
0.999993
0.985337
0.952014
0.996325
0.999899
1
1
1
1
1
1
1
1
1
1
1
1
1
1
1
1
1
1
1
1
0.993153
1
1
1
1
1
1
1
1
1
1
1
1
1
1
1
1
1
1
1
1
1
1
1
1
1
1
1
1
1
1
1
1
1
1
1
1
1
1
1
1
1
1
1
1
1
1
1
1
1
0.997383
0.976955
0.95969
0.935938
0.919519
0.936736
0.994337
1
1
1
1
1
1
1
1
1
1
1
1
1
1
1
0.89206
1
0.999969
1
1
0.982817
0.954026
0.754563
0.877728
1
1
1
0.97607
0.961185
0.981796
1
1
1
0.980182
0.900364
0.999999
0.99999
0.999994
0.999994
0.999993
0.999993
0.948666
0.986971
0.99997
0.963292
0.621073
0.500945
0.521595
0.566771
0.714773
0.801833
0.902294
1
0.946969
0.999998
0.999993
0.999984
0.999987
0.999993
0.992283
0.993576
0.989222
0.756074
0.213222
0.109473
0.147934
0.515831
0.523021
0.166782
0.14768
0.271236
0.60136
0.999745
0.993191
0.909964
0.964798
0.999981
0.999984
0.998534
0.996995
0.790522
0.129978
0.0234374
0.107541
0.572292
0.782615
0.782681
0.594642
0.0882307
0.0389491
0.00152225
1
0.999626
0.692393
0.885527
0.999781
0.999833
0.999287
0.873204
0.21081
0.0116783
0.0114479
0.133587
0.782211
0.782735
0.782615
0.781768
0.161976
0.0643657
0.154733
1
0.758766
0.668763
0.867679
0.998394
0.998977
0.992659
0.633627
0.0116784
0.00415585
0.00812337
0.0260405
0.781156
0.782211
0.781768
0.776213
0.202336
0.0705829
0.834331
0.999999
0.696853
0.701651
0.956813
0.995358
0.997262
0.936291
0.31348
0.00419522
0.00183324
0.00464734
0.0331593
0.773352
0.781156
0.7794
0.249983
0.257855
0.0865339
0.997187
0.775699
0.778515
0.915277
0.844443
0.985003
0.992694
0.819603
0.0793496
0.00183324
0.00127986
0.00226375
0.348001
0.763957
0.779192
0.77385
0.00602399
0.172924
0.1277
0.636991
0.417577
0.383131
0.358466
0.370205
0.446649
0.593954
0.761858
0.894718
0.969106
0.998535
1
1
1
1
1
0.999999
0.999998
0.999997
0.999996
0.999998
0.999997
0.999995
0.999998
0.0633019
0.0366618
0.0564389
0.074717
0.0969211
0.145557
0.23306
0.343123
0.466849
0.595056
0.725667
0.824707
0.876103
0.909924
0.953771
0.974597
0.972905
0.967393
0.974588
0.996724
0.999922
0.999679
0.999859
-3.53361e-07
2.84683e-05
1.88034e-05
1.91293e-05
1.72516e-05
1.30924e-05
7.37026e-06
1.4418e-05
0.000683691
0.024257
0.083975
0.156744
0.22142
0.293644
0.388689
0.497788
0.562339
0.604862
0.651031
0.666896
0.631877
0.576065
0.58918
-5.38033e-08
3.59303e-06
1.85905e-06
1.29135e-06
5.19246e-07
6.50495e-07
4.54032e-07
1.92312e-06
2.06829e-06
6.42344e-06
4.41746e-05
0.000257311
0.00133324
0.0207554
0.254224
0.50568
0.544015
0.352251
0.0949099
0.00717927
0.000634999
0.000622035
0.000617571
-3.28587e-09
1.04789e-06
2.96588e-07
9.29565e-08
3.74952e-08
2.62327e-08
2.19501e-08
4.82587e-08
1.36133e-07
3.48168e-07
1.57942e-06
1.32635e-05
5.99423e-05
0.00645814
0.0549578
0.0840624
0.0536066
0.00490237
0.00269479
0.00132246
0.000677688
0.000634999
0.000622036
-4.02488e-10
6.93288e-07
1.08841e-07
8.82835e-09
2.54183e-09
1.15102e-09
1.07837e-09
3.1449e-09
1.39263e-08
7.07166e-08
4.62083e-07
9.70327e-06
2.37026e-05
8.9016e-05
0.000283125
0.00132316
0.0437549
0.104224
0.101251
0.0174364
0.00132215
0.000793373
0.000672194
-2.87155e-24
3.26415e-06
2.28989e-07
2.56875e-09
1.0873e-09
2.38951e-10
1.75954e-10
5.9061e-10
4.53113e-09
1.33985e-08
1.964e-06
5.65953e-06
2.24462e-06
1.23343e-05
8.68771e-05
0.000545967
0.00286793
0.0796251
0.272289
0.29411
0.101527
0.00201524
0.00103471
-8.11956e-13
2.65196e-06
7.27731e-07
7.62307e-10
2.38951e-10
1.89625e-10
1.27558e-10
1.73706e-10
3.84385e-10
3.38093e-07
1.90203e-06
4.42185e-07
4.03798e-07
2.14943e-06
1.86706e-05
0.000136874
0.000740643
0.00469353
0.13119
0.341595
0.357489
0.199936
0.0118829
-1.41776e-23
2.20625e-07
5.04142e-07
7.46804e-08
1.89274e-10
1.27558e-10
1.25051e-10
1.27558e-10
5.40305e-08
3.65818e-07
3.76402e-07
5.13945e-08
1.27611e-07
4.28781e-07
3.3483e-06
2.8815e-05
0.000183257
0.000736242
0.0129841
0.217
0.363083
0.37244
0.329417
7.01062e-27
5.80199e-09
2.49431e-08
3.25751e-08
2.89186e-09
1.25051e-10
1.25051e-10
1.90021e-09
5.32359e-08
7.91261e-08
1.33965e-08
4.05458e-08
1.0047e-07
9.20714e-08
5.88469e-07
5.44279e-06
3.29194e-05
0.000134625
0.000378464
0.0110993
0.249341
0.381805
0.382195
-2.2249e-25
7.37079e-10
5.78673e-10
1.2319e-09
9.29273e-10
1.29269e-10
1.29608e-10
1.57819e-09
1.19233e-08
5.73729e-10
1.06748e-08
1.13316e-07
1.15001e-07
1.64265e-08
9.17778e-08
7.51213e-07
4.03961e-06
1.51527e-05
3.36922e-05
0.000122894
0.000673418
0.144338
0.377627
1.86875e-11
1.54471e-10
9.55441e-11
3.63994e-11
1.16045e-10
8.8836e-11
1.32586e-10
6.58088e-10
1.08635e-10
1.94939e-10
1.27971e-08
1.11168e-07
1.11227e-07
5.9695e-09
1.33033e-08
9.23665e-08
4.8841e-07
1.70492e-06
6.31202e-06
3.36233e-05
6.95954e-05
0.000130647
0.000157054
3.29014e-11
3.96315e-11
3.16559e-11
1.58959e-11
1.6412e-11
6.26496e-11
1.21314e-10
1.77018e-10
5.55184e-11
1.61921e-10
6.61371e-09
3.70021e-08
3.72251e-08
4.66357e-09
1.6491e-09
1.12844e-08
6.13127e-08
2.23655e-07
1.79207e-06
2.70816e-05
6.18453e-05
5.67567e-05
8.0403e-06
1.94836e-11
1.03784e-11
7.24561e-12
3.14288e-12
4.9966e-12
4.0394e-11
8.5698e-11
6.35402e-11
4.12189e-11
1.05783e-10
1.20682e-09
2.30976e-10
2.99469e-10
1.46958e-09
2.92776e-10
1.49994e-09
7.85158e-09
3.48596e-08
2.00266e-07
2.33612e-05
0.000814558
0.00098544
7.84867e-06
5.65078e-12
1.54414e-12
9.2595e-13
3.73508e-13
1.78464e-12
1.86679e-11
4.02438e-11
2.6842e-11
2.83291e-11
6.21279e-11
1.39629e-10
5.4768e-11
6.6722e-11
1.84584e-10
9.78884e-11
2.69084e-10
1.14339e-09
3.7572e-09
3.79212e-08
1.96723e-07
0.000790468
0.00204849
7.84867e-06
1.03268e-12
1.67762e-13
9.50708e-14
4.45203e-14
5.42545e-13
5.36744e-12
1.16759e-11
9.61861e-12
1.80048e-11
3.78367e-11
3.42686e-11
3.58587e-11
4.24286e-11
4.35469e-11
5.71322e-11
6.5244e-11
1.9001e-10
4.43688e-10
3.24927e-09
2.85653e-08
0.000854861
0.00279745
0.000305917
1.42425e-13
1.84939e-14
1.00268e-14
5.88219e-15
1.24832e-13
1.01206e-12
2.2113e-12
2.53492e-12
9.58036e-12
2.09874e-11
1.22587e-11
1.44065e-11
1.66455e-11
1.48741e-11
2.85079e-11
3.24545e-11
4.17015e-11
6.02948e-11
4.43688e-10
4.32641e-09
0.000748415
0.00279745
0.00209044
1.86925e-14
2.08807e-15
1.05452e-15
8.47049e-16
2.27877e-14
1.56378e-13
3.37483e-13
5.08633e-13
3.55686e-12
8.70605e-12
4.62195e-12
4.31412e-12
4.38643e-12
4.36703e-12
1.30039e-11
1.92549e-11
2.60629e-11
8.9995e-12
6.02948e-11
2.47161e-06
0.000165911
0.00254257
0.00309178
2.50125e-15
2.36613e-16
1.08244e-16
1.25828e-16
3.65631e-15
2.3298e-14
5.04535e-14
9.02048e-14
8.12989e-13
2.30955e-12
1.48727e-12
1.2863e-12
1.07788e-12
1.02162e-12
5.26983e-12
1.60577e-11
1.34061e-11
2.17631e-12
2.71017e-11
6.92454e-06
4.88664e-06
0.000189614
0.00212277
3.28716e-16
2.67087e-17
1.08458e-17
1.79534e-17
5.36917e-16
3.36927e-15
7.66384e-15
1.60793e-14
1.23353e-13
3.94297e-13
3.63627e-13
3.67087e-13
2.8761e-13
2.06621e-13
1.58946e-12
1.28866e-11
8.49251e-12
1.18664e-12
2.31054e-08
1.7824e-06
3.97938e-07
2.91489e-06
5.08575e-05
4.15311e-17
2.9963e-18
1.06429e-18
2.36537e-18
7.21885e-17
4.57184e-16
1.14905e-15
3.06776e-15
1.70249e-14
5.40196e-14
6.99005e-14
8.83581e-14
7.25511e-14
4.09397e-14
3.0651e-13
7.52171e-12
6.09468e-12
8.0381e-13
2.22466e-08
1.23812e-08
3.74477e-08
2.74847e-07
7.12928e-07
5.04542e-18
3.3299e-19
1.01908e-19
2.89126e-19
8.97041e-18
5.76605e-17
1.67556e-16
6.27667e-16
2.76237e-15
7.79645e-15
1.18079e-14
1.68667e-14
1.52024e-14
8.22454e-15
3.78672e-14
1.96485e-12
3.91542e-12
4.87915e-13
1.91233e-09
1.18508e-09
2.99044e-09
1.63806e-08
4.54138e-08
5.90476e-19
3.6269e-20
9.37468e-21
3.33547e-20
1.0481e-18
6.82065e-18
2.36766e-17
1.27916e-16
5.15471e-16
1.27564e-15
1.95694e-15
2.72423e-15
2.62439e-15
1.59155e-15
3.87014e-15
1.79259e-13
1.50656e-12
4.49891e-13
4.87915e-13
9.75315e-11
2.38943e-10
1.11974e-09
1.80009e-09
6.61438e-20
3.74354e-21
7.59346e-22
3.65062e-21
1.16449e-19
7.64762e-19
3.19745e-18
2.31918e-17
9.50223e-17
2.18062e-16
3.28088e-16
4.20681e-16
4.10032e-16
2.84944e-16
4.29261e-16
8.7673e-15
2.15259e-13
3.75917e-13
4.10987e-13
1.15615e-11
2.62793e-11
8.03614e-11
9.7254e-11
6.79557e-21
3.11428e-22
2.50379e-23
3.58514e-22
1.23555e-20
8.17654e-20
4.0298e-19
3.46156e-18
1.51819e-17
3.48946e-17
5.29685e-17
6.46923e-17
6.24058e-17
4.63691e-17
5.24234e-17
5.37399e-16
1.04099e-14
1.32811e-13
3.49159e-13
1.50916e-12
2.37829e-12
5.58947e-12
7.57384e-12
5.15682e-22
8.82831e-24
-7.89508e-40
2.07326e-23
1.25732e-21
8.36075e-21
4.66958e-20
4.26858e-19
2.00271e-18
4.85436e-18
7.66206e-18
9.39657e-18
9.05892e-18
6.80206e-18
6.30274e-18
4.05667e-17
4.24576e-16
1.16143e-14
9.70182e-14
2.52048e-13
6.45682e-13
3.92069e-13
1.02017e-12
1.07043e-23
-1.71026e-23
-3.38878e-23
4.02226e-40
1.23624e-22
8.19261e-22
4.99966e-21
4.63652e-20
2.25877e-19
5.79611e-19
9.56083e-19
1.21134e-18
1.17977e-18
8.99845e-19
6.45904e-19
2.92409e-18
2.65353e-17
3.3178e-16
4.37461e-15
1.93345e-14
6.71747e-14
7.08505e-14
1.68108e-13
-4.39032e-23
-2.56079e-23
-2.87646e-23
-6.97674e-25
1.07847e-23
7.70881e-23
5.0282e-22
4.70435e-21
2.32074e-20
6.14959e-20
1.04372e-19
1.36254e-19
1.33914e-19
1.0532e-19
3.88301e-20
1.6585e-19
1.77793e-18
1.26481e-17
1.10309e-16
8.99435e-16
3.38907e-15
5.87136e-15
1.57612e-14
-7.64207e-23
-1.59678e-23
-1.66255e-23
-1.82495e-24
4.67212e-25
7.03002e-24
4.81781e-23
4.55675e-22
2.25425e-21
6.03998e-21
1.03676e-20
1.371e-20
1.34869e-20
9.93521e-21
7.26255e-22
3.42999e-21
1.13485e-19
7.898e-19
5.64954e-18
4.40198e-17
1.70363e-16
3.52702e-16
1.35613e-15
-5.4525e-23
-7.75777e-24
-7.94924e-24
-1.36364e-24
-3.11334e-43
6.32357e-25
4.42542e-24
4.22274e-23
2.08892e-22
5.61058e-22
9.64755e-22
1.27412e-21
1.24583e-21
7.94026e-22
-7.35269e-21
0
6.6569e-21
4.96414e-20
3.49498e-19
2.2597e-18
1.00942e-17
4.33994e-17
2.67235e-16
-2.96636e-23
-3.29422e-24
-3.32892e-24
-7.42811e-25
0
4.7229e-26
3.90425e-25
3.74867e-24
1.84957e-23
4.96163e-23
8.50565e-23
1.11272e-22
1.07763e-22
6.53542e-23
-6.32226e-21
-1.12449e-21
2.04027e-37
3.00192e-21
2.09494e-20
1.15567e-19
9.8382e-19
1.02341e-17
8.46757e-17
-1.38296e-23
-1.27926e-24
-1.25313e-24
-3.35786e-25
-1.79811e-26
7.47082e-28
3.37206e-26
3.20173e-25
1.56973e-24
4.19098e-24
7.1346e-24
9.19284e-24
8.79919e-24
5.16958e-24
-2.9039e-21
-1.04585e-21
-6.27621e-39
1.85101e-22
1.20219e-21
6.91164e-21
1.435e-19
2.51628e-18
2.60835e-17
-5.78081e-24
-4.65048e-25
-4.30486e-25
-1.32257e-25
-1.13473e-26
0
2.88132e-27
2.64173e-26
1.28279e-25
3.3955e-25
5.71772e-25
7.21779e-25
6.81365e-25
3.85313e-25
-9.90663e-22
-4.49261e-22
-5.57615e-23
2.39902e-41
6.61379e-23
5.00033e-22
2.05345e-20
4.79944e-19
6.1171e-18
-2.21474e-24
-1.60289e-25
-1.36366e-25
-4.65736e-26
-5.03558e-27
-7.57204e-29
2.0877e-28
2.11561e-27
1.01436e-26
2.65145e-26
4.39944e-26
5.41348e-26
5.02818e-26
2.72646e-26
-2.76388e-22
-1.40776e-22
-2.75354e-23
2.47116e-41
3.61134e-24
3.6298e-23
2.24024e-21
6.55489e-20
9.56814e-19
-7.8694e-25
-5.2702e-26
-4.01596e-26
-1.49053e-26
-1.8563e-27
-8.41662e-29
5.88911e-30
1.66713e-28
7.80363e-28
2.00532e-27
3.26608e-27
3.89839e-27
3.55327e-27
1.84342e-27
-6.60844e-23
-3.58738e-23
-8.26777e-24
-6.61304e-25
3.6574e-26
2.31592e-24
1.76855e-22
6.69345e-21
9.94219e-20
-2.6106e-25
-1.65601e-26
-1.10729e-26
-4.38672e-27
-5.99456e-28
-3.76684e-29
-4.75058e-48
1.31069e-29
5.87154e-29
1.47626e-28
2.35065e-28
2.70861e-28
2.41497e-28
1.19595e-28
-1.39389e-23
-7.80715e-24
-1.92971e-24
-2.27713e-25
0
1.34839e-25
1.1421e-23
5.81026e-22
8.42834e-21
-8.11837e-26
-4.96898e-27
-2.87662e-27
-1.19837e-27
-1.74046e-28
-1.283e-29
0
9.77351e-31
4.33806e-30
1.06325e-29
1.64802e-29
1.82473e-29
1.58516e-29
7.47388e-30
-2.64766e-24
-1.49348e-24
-3.77309e-25
-5.07211e-26
-1.43815e-27
7.51733e-27
7.71788e-25
5.16811e-23
7.65771e-22
-2.37319e-26
-1.42084e-27
-7.08259e-28
-3.06293e-28
-4.61837e-29
-3.7168e-30
-7.21277e-32
6.73875e-32
3.17082e-31
7.52962e-31
1.13092e-30
1.19816e-30
1.00936e-30
4.51916e-31
-4.60259e-25
-2.56235e-25
-6.4077e-26
-8.91101e-27
-5.04975e-28
4.66049e-28
6.64139e-26
5.19067e-24
7.53749e-23
-6.53697e-27
-3.86498e-28
-1.66152e-28
-7.37641e-29
-1.13371e-29
-9.5569e-31
-2.92108e-32
4.08356e-33
2.30867e-32
5.26661e-32
7.63157e-32
7.71006e-32
6.26557e-32
2.65827e-32
-7.42062e-26
-4.00545e-26
-9.66951e-27
-1.31712e-27
-8.77339e-29
3.36545e-29
6.93021e-27
5.33843e-25
6.65495e-24
-1.70095e-27
-9.98068e-29
-3.73103e-29
-1.68457e-29
-2.59965e-30
-2.23077e-31
-8.00556e-33
1.65218e-34
1.67319e-33
3.65705e-33
5.09362e-33
4.91497e-33
3.80827e-33
1.52973e-33
-1.12226e-26
-5.78006e-27
-1.3186e-27
-1.69241e-28
-1.13386e-29
2.78206e-30
7.13379e-28
4.69192e-26
4.44331e-25
-4.194e-28
-2.45351e-29
-8.05421e-30
-3.67014e-30
-5.62016e-31
-4.80746e-32
-1.80948e-33
-2.89033e-51
1.21033e-34
2.39738e-34
2.87974e-34
2.74012e-34
2.20215e-34
8.75586e-35
-1.60675e-27
-7.78925e-28
-1.64949e-28
-1.9355e-29
-1.20379e-30
2.3564e-31
6.05041e-29
3.13442e-27
2.1491e-26
-9.83004e-29
-5.65858e-30
-1.67272e-30
-7.65953e-31
-1.14626e-31
-9.52829e-33
-3.4321e-34
1.7385e-52
4.55651e-36
1.76765e-35
4.11015e-35
3.31023e-35
1.18151e-35
2.51883e-36
-2.20255e-28
-9.85278e-29
-1.88459e-29
-1.93313e-30
-1.01677e-31
9.59783e-33
2.26605e-30
9.16614e-29
4.43599e-28
1
1
1
1
0.999949
0.999943
0.993369
0.972147
0.658663
0.622847
0.43976
0.24349
0.000616876
0.000615451
0.000611751
0.000610977
0.000615777
0.000611751
0.000610986
0.000610993
0.000632471
0.000618128
0.000611751
0.000610972
0.000754502
0.000674795
0.000630708
0.00061585
0.00156054
0.00119704
0.000856198
0.000705245
0.0615598
0.0364549
0.00902984
0.00199533
0.388527
0.396734
0.216012
0.108778
0.396702
0.399914
0.400847
0.403344
0.195669
0.322641
0.365465
0.393354
1.23436e-06
9.11316e-06
4.65118e-06
9.50167e-06
7.94361e-06
8.27402e-06
9.17764e-06
1.12347e-05
7.82778e-06
7.94361e-06
8.33401e-06
9.28985e-06
7.94361e-06
8.15595e-06
9.30555e-06
1.52167e-05
8.10587e-06
8.11127e-06
9.49625e-06
8.96582e-05
0.00231541
0.000934092
0.000459181
0.000552176
0.00294398
0.00300432
0.00303878
0.00303878
0.000383638
0.0006957
0.000712601
0.00105019
8.77521e-07
7.72292e-07
2.02367e-06
2.29464e-06
3.87201e-08
3.14569e-08
7.36933e-08
1.50381e-07
1.67353e-09
9.77044e-10
1.45251e-09
1.64562e-09
3.81717e-11
3.39046e-11
3.0471e-11
2.45108e-11
6.32658e-12
4.48212e-12
1.01636e-11
1.22449e-11
2.72093e-12
3.95047e-12
4.79654e-12
5.50152e-12
4.19016e-13
7.42484e-13
1.19908e-12
1.72013e-12
3.82142e-14
8.21152e-14
1.83516e-13
2.76337e-13
3.3436e-15
6.72916e-15
1.38688e-14
2.01802e-14
6.53126e-16
1.12943e-15
1.88124e-15
2.97389e-15
2.1251e-16
3.67858e-16
6.20095e-16
1.06571e-15
6.80354e-17
1.23155e-16
2.2875e-16
3.9269e-16
1.65841e-17
3.11443e-17
6.76124e-17
1.16038e-16
2.63877e-18
4.92745e-18
1.25236e-17
2.32988e-17
2.67462e-19
4.67853e-19
1.31364e-18
2.84094e-18
2.14774e-20
3.43646e-20
1.00105e-19
2.49538e-19
1.84412e-21
2.85419e-21
9.78769e-21
2.52983e-20
1.69079e-22
2.73841e-22
1.38611e-21
3.19005e-21
1.35478e-23
2.45621e-23
1.78932e-22
3.10369e-22
7.91386e-25
1.6359e-24
1.3056e-23
1.53361e-23
3.11246e-26
7.1475e-26
4.61457e-25
3.64664e-25
8.76725e-28
1.69979e-27
6.40307e-27
1.30618e-26
0.859746
0.918421
0.917525
0.491782
0.697093
0.985644
0.686868
0.00190862
0.00127986
0.00127986
0.00127986
0.668637
0.765757
0.774046
0.498489
0.00225702
0.0340157
0.14739
0.170222
0.988289
0.807523
0.0984117
0.0937732
0.623244
0.977118
0.671726
0.00266526
0.00135015
0.00127986
0.00343409
0.754596
0.761195
0.642304
0.0236303
0.00196802
0.00196626
0.09612
0.00395426
0.149637
0.113696
0.00524402
0.217869
0.801938
0.968378
0.660546
0.00459977
0.00142043
0.00135498
0.198212
0.749371
0.73783
0.135236
0.00209201
0.00196815
0.00209776
0.0282575
0.12219
0.00187347
0.0010087
0.00191991
0.0253867
0.595403
0.959308
0.683757
0.0146152
0.00151142
0.0418686
0.672514
0.749371
0.377204
0.00246878
0.002175
0.00209811
0.00269016
0.0111701
0.398414
0.000610993
0.000641063
0.000908426
0.00192058
0.261358
0.866117
0.751838
0.217253
0.00248039
0.478328
0.732573
0.728414
0.114548
0.0026514
0.00250568
0.00269025
0.00364866
0.00583846
0.452283
0.000616638
0.000623663
0.000672806
0.000916264
0.0205921
0.459943
0.798881
0.745538
0.326621
0.736933
0.736933
0.505045
0.115202
0.00396884
0.00894385
0.0187968
0.00986128
0.00789826
0.464948
0.000623663
0.000637987
0.000680431
0.000927867
0.00298613
0.287345
0.800726
0.799455
0.79201
0.665197
0.145843
0.1335
0.419589
0.323904
0.342473
0.446794
0.447044
0.302515
0.69865
0.000632159
0.000679057
0.000808419
0.00180313
0.136038
0.720617
0.800416
0.800527
0.799455
0.298944
0.00358453
0.0192216
0.425655
0.653645
0.696574
0.744771
0.836125
0.908815
0.934965
0.00222028
0.0254247
0.127965
0.464744
0.666648
0.690468
0.696248
0.63374
0.530033
0.125549
0.00296198
3.69465e-05
5.2611e-06
0.0914113
0.11899
0.10775
0.26082
0.67673
1
0.208685
0.345027
0.383953
0.391338
0.238064
0.179771
0.176235
0.168465
0.15578
0.0759523
0.000548505
5.26019e-06
3.81683e-06
4.39819e-06
8.53186e-06
3.77339e-05
0.000253089
0.0487951
0.789483
0.412099
0.1674
0.164448
0.16385
0.16433
0.166373
0.171755
0.208964
0.208331
0.0637654
0.00107604
3.46688e-06
3.77557e-06
3.81683e-06
4.39819e-06
8.53184e-06
3.7733e-05
0.000252927
0.0794467
0.42475
0.428255
0.428255
0.427911
0.336264
0.329187
0.318588
0.290596
0.0830888
0.0150114
2.88066e-06
3.07767e-06
3.61272e-06
3.9749e-06
4.21078e-06
3.41656e-06
8.91758e-06
5.10268e-05
-3.94266e-07
0.0956644
0.328116
0.383948
0.343332
0.282677
0.194067
0.0555052
5.97641e-05
0.00104862
9.40222e-05
2.5319e-06
2.37499e-06
6.32785e-06
1.00686e-05
5.75993e-06
1.61651e-06
7.23995e-05
0.00120809
-3.33193e-07
1.39153e-05
1.24799e-05
8.8918e-06
1.23256e-05
2.0704e-05
2.52191e-05
2.53828e-05
4.58491e-05
5.81054e-05
1.87545e-05
1.41924e-06
2.22288e-06
1.00686e-05
1.00686e-05
1.00686e-05
1.4697e-06
9.05022e-05
0.00322318
-5.47513e-08
1.06362e-05
8.80383e-06
6.76307e-06
8.89187e-06
3.94229e-05
6.93721e-05
6.26821e-05
2.20933e-06
3.62945e-06
1.70334e-06
2.49887e-08
1.16533e-06
5.07114e-06
9.70725e-06
5.78787e-06
1.29915e-06
5.71945e-05
0.00440023
0.000249039
1.16554e-05
6.66994e-06
4.8516e-06
3.15999e-05
6.93503e-05
7.01859e-05
3.30153e-05
1.00811e-06
4.76915e-07
2.49887e-08
1.85256e-08
1.78892e-08
1.78068e-08
1.5833e-07
5.36929e-08
9.58708e-08
7.7264e-07
0.00207068
0.278713
0.000325573
0.00045427
2.80002e-06
3.08335e-06
1.98251e-05
1.5601e-05
1.57185e-06
8.21352e-07
2.75456e-07
1.26608e-07
1.52193e-07
1.82129e-08
1.73335e-08
1.72433e-08
1.73626e-08
5.36928e-08
3.35161e-06
4.55622e-05
0.632428
0.00216543
0.00197092
4.30979e-07
2.20645e-07
6.03715e-07
1.85263e-05
1.43394e-05
9.52076e-07
8.84688e-07
8.73906e-07
2.04551e-07
1.582e-08
1.70895e-08
1.70331e-08
1.47105e-07
9.6095e-06
2.55058e-05
0.000110395
0.496481
0.00303878
0.00184353
1.83792e-06
4.71053e-09
9.27937e-10
1.1385e-09
4.97833e-06
5.20097e-06
5.07569e-06
1.69998e-06
1.4532e-08
1.21609e-08
1.52496e-08
1.69044e-08
1.45197e-08
0.000220961
0.00242361
0.00110755
0.049384
0.00120173
8.10015e-05
1.33936e-08
1.62851e-09
6.73204e-10
7.65844e-10
8.06156e-10
1.52883e-07
5.11448e-09
8.85592e-09
1.45497e-08
1.18767e-08
1.31322e-08
1.61788e-08
1.20147e-08
0.000769785
0.00459669
0.000786881
3.64679e-21
1.13643e-07
1.31837e-08
1.35775e-09
5.22946e-10
5.86716e-10
7.96001e-10
8.00301e-10
8.06156e-10
4.64773e-09
1.32689e-08
1.0827e-08
5.61325e-09
5.09174e-08
1.71888e-08
1.20147e-08
0.00127266
0.00460666
0.000236223
-1.03383e-23
1.67398e-07
7.43864e-08
1.53328e-10
2.53543e-10
5.52774e-10
7.7839e-10
8.09979e-10
8.09407e-10
2.0905e-09
1.3422e-08
4.06273e-09
5.81519e-09
1.14929e-07
3.91389e-08
1.18561e-08
0.00154385
0.00459342
6.14472e-05
-5.84718e-20
2.53003e-10
1.81852e-10
1.74906e-10
3.06274e-10
5.55859e-10
7.51648e-10
7.75632e-10
1.0081e-09
2.3664e-09
2.2369e-09
2.13536e-09
7.1668e-09
1.14982e-07
6.53001e-08
1.04444e-08
0.00161298
0.00451987
1.17472e-05
-2.88079e-15
2.9353e-10
1.82286e-10
1.72547e-10
3.18366e-10
5.89942e-10
6.05091e-10
5.11594e-10
1.29973e-09
6.04475e-09
6.66273e-09
2.25843e-09
9.61608e-09
1.14812e-07
7.68243e-08
7.06284e-09
0.00165215
0.00201553
4.20762e-06
0.0123842
2.15157e-11
5.29923e-11
1.25517e-10
3.20247e-10
5.03535e-10
4.43702e-10
4.45062e-10
1.3823e-09
5.97314e-09
6.67241e-09
5.17963e-09
1.51996e-09
9.23423e-08
5.21046e-08
4.61887e-09
0.00146117
4.20762e-06
2.3205e-06
0.024813
8.74711e-12
2.65162e-11
8.35641e-11
2.30031e-10
2.89019e-10
3.43814e-10
4.86328e-10
7.1037e-10
1.59266e-09
4.01381e-09
2.67939e-09
1.45961e-09
2.21958e-08
2.10011e-08
3.33262e-09
0.000557301
4.39098e-05
5.30154e-07
0.0037045
3.16881e-12
1.22099e-11
5.44283e-11
1.12864e-10
1.6549e-10
3.42634e-10
5.83918e-10
5.94698e-10
8.58653e-10
9.72442e-10
1.05061e-09
1.2537e-09
1.98777e-08
1.68003e-08
2.63696e-09
4.65529e-05
1.60314e-05
1.4175e-10
1.78066e-24
6.99132e-13
5.24443e-12
2.66467e-11
5.62005e-11
1.22378e-10
4.31294e-10
5.3322e-10
5.65589e-10
8.96779e-10
1.03666e-09
1.2537e-09
1.45961e-09
2.3369e-09
2.63696e-09
2.61758e-09
4.53948e-10
2.07464e-10
6.57134e-11
-6.84131e-47
2.26765e-13
4.04452e-12
1.65624e-11
4.32438e-11
1.20479e-10
2.738e-10
2.98653e-10
1.83714e-08
1.50608e-09
1.59807e-09
3.44256e-09
3.26558e-09
2.96503e-09
2.62568e-09
2.53179e-09
9.0146e-10
6.39162e-10
7.76049e-10
5.56455e-26
1.87179e-13
2.88815e-12
1.22044e-11
7.42799e-11
1.26209e-10
1.93917e-11
1.35345e-08
4.37113e-07
1.1421e-07
1.28544e-07
4.94981e-07
5.13864e-07
6.12192e-08
3.61232e-09
2.62568e-09
3.30658e-09
2.16706e-09
2.10371e-09
0
1.22042e-13
1.21605e-12
2.37583e-11
1.12467e-10
1.09811e-10
1.73961e-11
1.06808e-07
6.11073e-07
4.40669e-07
3.96175e-07
3.95498e-06
4.27019e-06
2.63095e-06
4.61701e-07
7.59325e-08
8.51408e-09
2.01756e-09
2.00869e-09
0
3.42262e-14
4.81819e-13
5.70252e-12
8.84858e-11
8.52373e-11
1.64337e-11
6.65125e-08
6.16006e-07
6.48442e-07
6.48608e-07
4.47064e-06
4.51926e-06
4.51915e-06
3.75065e-06
1.084e-06
2.66315e-09
1.71334e-09
1.63888e-09
-9.97168e-21
5.00755e-15
1.66182e-13
3.27308e-12
3.68482e-11
4.26662e-11
1.64903e-11
1.55095e-12
1.51038e-07
5.86441e-07
7.93497e-07
1.03415e-06
2.72362e-06
4.24635e-06
3.97982e-06
1.57174e-06
9.93374e-09
4.03938e-09
1.19674e-09
-7.38508e-11
8.21857e-16
4.10055e-14
7.71318e-13
6.74342e-12
1.16238e-11
9.2965e-12
1.50174e-12
1.38062e-13
9.93645e-08
3.77856e-07
1.65519e-08
9.9088e-09
2.01459e-09
1.13707e-09
9.50181e-08
1.24948e-07
3.64092e-08
4.35692e-10
-1.635e-12
1.36264e-16
4.74867e-15
5.94792e-14
2.59815e-13
1.45223e-12
1.88762e-12
1.25698e-12
1.27498e-13
7.33428e-16
2.2934e-09
7.57861e-08
1.66404e-08
1.26494e-09
9.7815e-10
3.64232e-10
2.30148e-08
4.43609e-08
1.55533e-10
7.73777e-05
1.62803e-17
3.33355e-16
2.58362e-15
1.40382e-14
1.70279e-13
2.39236e-13
1.69461e-13
4.12164e-14
1.01173e-16
0
-3.5132e-17
1.88845e-09
1.97943e-08
1.38412e-08
3.52584e-10
4.51304e-10
2.04415e-08
2.20122e-11
0.000584441
1.71374e-18
3.7624e-17
4.39874e-16
2.14884e-15
9.11212e-15
8.77984e-15
4.89527e-15
7.94417e-16
0
-5.08376e-17
-8.04902e-17
-7.60223e-17
-5.66488e-17
-3.76183e-17
-2.23315e-17
3.40767e-09
2.11771e-09
6.92502e-12
0.000553723
2.88879e-19
7.15073e-18
1.71552e-16
5.06734e-16
4.31516e-16
2.42771e-16
7.39043e-17
7.09539e-19
-3.67228e-17
-7.72982e-17
-8.71145e-17
-7.39643e-17
-5.16391e-17
-3.17533e-17
-1.69827e-17
8.97963e-10
-2.11443e-30
6.68606e-12
0
5.80924e-20
1.20237e-18
4.52002e-17
4.17802e-17
1.89375e-17
1.26765e-19
-2.69365e-18
-6.43957e-18
-4.47968e-17
-6.94449e-17
-6.33169e-17
-4.55542e-17
-2.72714e-17
-1.43403e-17
-6.48482e-18
-1.08612e-18
-9.68882e-20
2.93719e-11
2.40567e-13
8.15386e-21
1.14617e-19
2.37145e-18
1.56412e-18
2.91015e-19
-3.27874e-18
-5.22648e-18
-7.77393e-18
-3.35924e-17
-3.89821e-17
-2.75775e-17
-1.59914e-17
-7.82896e-18
-3.39563e-18
-1.25044e-18
-2.33936e-19
-2.31546e-20
3.56822e-11
4.33837e-13
5.71689e-22
4.96074e-21
3.65749e-20
2.39433e-20
5.20883e-21
-2.30364e-18
-3.02112e-18
-4.64278e-18
-1.35586e-17
-1.07005e-17
-5.08937e-18
-1.97139e-18
-6.51845e-19
-1.96089e-19
-5.04465e-20
-8.13221e-21
-7.23667e-22
1.83087e-11
8.88268e-14
1.23114e-23
6.08974e-23
1.39556e-22
1.74081e-22
2.6055e-23
-6.83398e-19
-4.16002e-19
-7.14727e-19
-2.54779e-18
-1.23181e-18
-3.24489e-19
-6.52397e-20
-1.06078e-20
-1.48492e-21
-1.75251e-22
-1.72397e-23
-1.81353e-24
-1.5039e-25
-2.93627e-27
)
;

boundaryField
{
    leftWall
    {
        type            zeroGradient;
    }
    rightWall
    {
        type            zeroGradient;
    }
    lowerWall
    {
        type            zeroGradient;
    }
    atmosphere
    {
        type            inletOutlet;
        inletValue      uniform 0;
        value           nonuniform List<scalar> 
46
(
-9.83004e-29
-5.65858e-30
-1.67272e-30
-7.65953e-31
-1.14626e-31
-9.52829e-33
-3.4321e-34
1.7385e-52
4.55651e-36
1.76765e-35
4.11015e-35
3.31023e-35
1.18151e-35
2.51883e-36
-2.20255e-28
-9.85278e-29
-1.88459e-29
-1.93313e-30
-1.01677e-31
9.59783e-33
2.26605e-30
9.16614e-29
4.43599e-28
8.76725e-28
1.69979e-27
6.40307e-27
1.30618e-26
1.23114e-23
0
0
0
0
0
0
0
0
0
0
0
0
0
0
0
0
0
0
)
;
    }
    defaultFaces
    {
        type            empty;
    }
}


// ************************************************************************* //
