/*--------------------------------*- C++ -*----------------------------------*\
| =========                 |                                                 |
| \\      /  F ield         | OpenFOAM: The Open Source CFD Toolbox           |
|  \\    /   O peration     | Version:  5.x                                   |
|   \\  /    A nd           | Web:      www.OpenFOAM.org                      |
|    \\/     M anipulation  |                                                 |
\*---------------------------------------------------------------------------*/
FoamFile
{
    version     2.0;
    format      ascii;
    class       volScalarField;
    location    "0.75";
    object      p;
}
// * * * * * * * * * * * * * * * * * * * * * * * * * * * * * * * * * * * * * //

dimensions      [1 -1 -2 0 0 0 0];

internalField   nonuniform List<scalar> 
2268
(
531.62
531.266
532.614
536.198
544.07
558.776
580.36
604.652
627.953
650.401
672.739
695.202
717.632
739.459
759.607
777.221
791.096
798.102
798.904
799.191
811.172
837.306
851.491
472.257
471.33
472.505
475.881
483.246
498.091
520.441
545.367
568.972
591.493
613.883
636.413
658.943
680.974
701.407
719.26
734.712
745.015
743.618
736.867
746.049
770.136
788.024
410.984
409.688
411.072
414.378
421.096
435.868
459.265
485.584
509.897
532.558
554.935
577.498
600.163
622.445
643.318
661.684
677.455
688.793
687.562
679.609
686.72
706.594
724.508
348.47
346.864
348.497
351.548
357.332
371.888
397.101
425.672
451.004
473.75
496.019
518.623
541.547
564.314
585.839
604.814
620.502
631.38
632.435
627.006
633.535
647.343
662.443
285.597
283.408
285.054
287.79
293.214
308.366
335.831
366.572
392.578
415.151
437.169
459.772
483.029
506.503
528.968
548.752
564.548
575.234
578.569
576.648
581.963
590.26
601.443
222.819
219.664
220.987
223.509
229.684
245.901
276.415
308.454
334.465
356.691
378.347
400.847
424.465
448.868
472.601
493.473
509.536
520.069
524.958
523.932
527.917
532.936
541.072
160.127
156.486
156.722
159.758
167.873
187.109
217.786
250.231
275.809
297.85
319.352
341.836
365.859
391.44
416.826
439.051
455.288
465.086
469.437
469.418
472.243
475.331
482.472
97.1253
93.18
92.206
96.0773
107.478
130.016
161.511
191.913
216.695
238.652
259.983
282.384
306.808
333.907
361.579
385.635
401.97
410.565
413.664
413.639
415.494
417.441
425.344
797.931
695.599
667.629
732.227
833.391
897.784
817.968
805.69
900.61
909.742
818.563
902.541
1443.91
2229.52
2318.69
1660.33
1230.48
1138.61
1183.92
743.423
606.145
578.593
658.46
761.561
822.112
723.63
734.846
842.681
804.475
635.434
741.942
1354.31
2168.95
2385.84
1574.66
1002.44
1009.12
1117.62
666.923
503.674
486.626
584.418
695.157
748.821
636.256
653.467
722.486
582.119
471.196
633.92
1188.3
1986.97
2078.51
1366.84
1021.69
979.21
1054.15
576.952
404.857
395.796
514.51
644.575
702.249
597.491
582.09
545.856
427.512
408.836
529.411
991.311
1654.87
1618.91
1148.82
925.062
915.27
1031.65
499.185
326.344
338.653
458.619
610.874
694.568
607.533
515.884
422.249
383.083
380.307
420.145
761.91
1297.43
1199.87
799.34
700.266
843.705
1027.54
443.738
284.044
305.638
414.786
577.873
712.096
627.548
447.978
385.101
370.605
371.012
392.978
508.911
978.344
867.194
433.618
428.924
740.964
959.143
406.322
267.411
275.425
361.074
525.627
705.289
621.388
404.447
373.328
367.183
368.376
382.301
421.32
722.659
571.385
231.896
262.656
562.362
695.715
372.662
253.553
230.246
274.171
415.383
639.391
559.836
385.121
369.356
365.997
366.389
372.003
388.144
540.902
324.817
206.495
219.787
353.925
414.036
35.6668
33.923
35.1909
38.8792
46.4983
59.9713
80.0311
102.385
124.137
145.223
166.356
188.724
213.829
243.693
275.67
303.746
320.033
326.135
326.59
325.553
325.865
326.317
330.383
7.30026
4.66366
5.00636
5.81586
7.22052
10.339
15.8788
23.103
32.0924
43.4228
54.5612
68.987
91.2041
128.173
169.972
208.925
222.892
220.531
212.947
206.621
203.925
200.627
198.797
2.26847
1.97401
1.60072
1.20954
0.991286
1.02116
1.09737
1.03969
0.779538
0.650176
1.96521
4.40579
12.1908
56.4642
129.459
157.886
143.955
119.769
109.15
105.186
101.246
97.4221
98.1913
1.56562
1.32353
1.07665
0.843963
0.72683
0.708525
0.712767
0.625819
0.343611
-0.11313
-0.546082
-0.909192
0.232611
9.27996
32.6176
49.3629
55.3674
60.2795
66.9206
62.9364
61.2675
61.074
60.8695
1.0052
0.758911
0.56894
0.419884
0.382579
0.356991
0.274294
0.0916748
-0.168442
-0.314927
-0.242598
0.0201881
0.57624
1.42192
3.08807
6.37277
33.3421
46.0619
54.2661
58.5501
60.3063
60.5717
60.2887
0.520249
0.257795
0.158695
0.0690968
0.097396
0.104908
0.0642267
-0.0273712
-0.146614
-0.230108
-0.20726
-0.0243652
0.248724
0.426913
0.327896
0.136839
3.78139
29.3864
46.9636
56.6913
59.2412
59.5959
59.5377
0.17423
-0.122454
-0.140565
-0.216598
-0.129176
-0.113161
-0.132295
-0.180531
-0.236888
-0.265254
-0.219781
-0.0894849
0.0606516
0.162715
0.188857
0.0669943
0.400096
5.19727
24.7458
37.6646
51.1851
58.0779
59.1762
-0.0620666
-0.272898
-0.3394
-0.366793
-0.322259
-0.306574
-0.325505
-0.364696
-0.405958
-0.423862
-0.400161
-0.344368
-0.30041
-0.318593
-0.414291
-0.647552
-0.943762
-0.581369
5.98131
25.9551
34.8574
48.0916
58.1567
-0.286844
-0.350981
-0.421618
-0.468408
-0.472178
-0.481451
-0.509558
-0.548683
-0.589541
-0.61954
-0.632718
-0.637631
-0.66048
-0.73628
-0.890559
-1.1796
-1.65054
-2.03683
-1.2073
10.4611
32.6704
44.3228
45.5857
-0.527612
-0.502042
-0.539444
-0.595362
-0.631218
-0.663668
-0.70149
-0.74344
-0.786754
-0.827598
-0.866682
-0.910459
-0.974921
-1.08413
-1.26486
-1.55463
-1.9633
-2.35902
-2.48158
-1.33976
11.1195
27.2146
42.3588
-0.750613
-0.713545
-0.735228
-0.780652
-0.822112
-0.862678
-0.904978
-0.949661
-0.996907
-1.04568
-1.09961
-1.16444
-1.25111
-1.37565
-1.55459
-1.80496
-2.11613
-2.4087
-2.5824
-2.5841
-2.28561
3.727
13.4056
-0.95586
-0.937683
-0.958796
-0.992463
-1.02946
-1.06953
-1.11226
-1.1583
-1.20847
-1.26336
-1.32628
-1.40157
-1.49687
-1.62206
-1.7848
-1.9895
-2.22903
-2.45874
-2.61669
-2.68953
-2.71908
-3.11546
-2.68699
-1.16168
-1.15957
-1.17781
-1.20451
-1.23748
-1.27539
-1.31734
-1.36383
-1.41581
-1.47438
-1.54194
-1.62138
-1.71805
-1.83745
-1.98261
-2.1518
-2.34165
-2.52438
-2.67118
-2.7748
-2.83337
-2.84428
-2.81676
-1.36817
-1.37324
-1.38797
-1.41107
-1.44122
-1.47713
-1.51812
-1.56458
-1.61728
-1.67722
-1.74611
-1.82627
-1.92084
-2.03295
-2.16387
-2.3108
-2.46703
-2.61695
-2.74689
-2.86655
-2.96423
-3.04892
-3.26763
-1.5704
-1.57682
-1.59048
-1.61167
-1.63965
-1.67375
-1.71352
-1.7593
-1.81165
-1.87139
-1.93978
-2.0185
-2.10949
-2.21457
-2.33432
-2.4665
-2.6059
-2.74384
-2.87345
-3.02946
-3.1457
-3.26862
-3.61746
-1.76647
-1.77302
-1.78606
-1.80589
-1.83213
-1.86453
-1.90283
-1.94732
-1.99846
-2.05691
-2.12361
-2.1997
-2.28648
-2.38519
-2.49637
-2.61892
-2.75014
-2.88789
-3.02964
-3.21191
-3.40208
-3.65953
-4.04897
-1.95658
-1.96297
-1.97521
-1.99387
-2.01858
-2.04933
-2.08594
-2.12871
-2.17802
-2.23439
-2.2985
-2.37117
-2.4534
-2.5462
-2.65032
-2.76585
-2.89214
-3.03133
-3.18843
-3.39419
-3.71415
-4.10171
-4.60945
-2.14087
-2.14693
-2.15841
-2.17599
-2.19927
-2.22833
-2.26308
-2.30381
-2.3508
-2.40448
-2.46535
-2.53406
-2.61141
-2.69832
-2.79575
-2.90473
-3.02631
-3.16478
-3.33335
-3.5628
-3.9633
-4.40306
-4.89882
-2.31963
-2.32529
-2.33609
-2.3526
-2.37447
-2.40178
-2.43453
-2.47295
-2.51727
-2.56783
-2.62501
-2.68933
-2.76142
-2.84212
-2.93245
-3.03386
-3.14832
-3.28028
-3.44221
-3.66155
-4.02614
-4.49174
-4.92378
-2.49327
-2.49851
-2.50864
-2.52406
-2.54449
-2.57002
-2.60066
-2.6366
-2.67803
-2.72518
-2.77835
-2.83793
-2.9044
-2.97842
-3.0609
-3.15312
-3.25689
-3.37553
-3.5162
-3.69642
-3.97353
-4.35694
-4.69801
-2.66218
-2.66702
-2.67645
-2.69077
-2.70975
-2.73345
-2.76193
-2.7953
-2.8337
-2.87728
-2.92625
-2.98086
-3.04146
-3.10847
-3.1825
-3.26439
-3.35524
-3.45684
-3.57196
-3.70755
-3.88543
-4.13118
-4.37673
-2.82676
-2.83122
-2.83992
-2.85314
-2.87067
-2.89255
-2.91883
-2.9496
-2.98492
-3.02487
-3.06957
-3.11916
-3.17382
-3.23376
-3.29928
-3.37074
-3.44859
-3.53341
-3.62562
-3.72669
-3.83921
-3.97226
-4.10873
-2.98739
-2.99146
-2.99945
-3.01159
-3.02767
-3.04774
-3.07186
-3.10004
-3.13229
-3.16865
-3.20913
-3.25378
-3.30265
-3.35577
-3.41319
-3.47497
-3.54108
-3.61143
-3.68559
-3.76307
-3.84224
-3.92175
-3.99716
-3.14443
-3.14813
-3.15541
-3.16649
-3.18116
-3.19949
-3.22148
-3.24712
-3.27638
-3.30924
-3.34565
-3.38558
-3.42895
-3.47571
-3.52574
-3.57887
-3.63485
-3.69327
-3.75346
-3.81448
-3.87477
-3.93154
-3.9822
-3.29824
-3.30156
-3.30816
-3.31823
-3.33155
-3.34819
-3.36814
-3.39133
-3.41771
-3.44721
-3.47976
-3.51525
-3.55354
-3.59449
-3.63788
-3.68346
-3.73082
-3.77944
-3.8286
-3.8773
-3.92424
-3.96716
-4.00403
-3.44915
-3.4521
-3.45807
-3.46717
-3.4792
-3.49424
-3.51222
-3.53308
-3.55673
-3.58307
-3.612
-3.64337
-3.67702
-3.71273
-3.75027
-3.7893
-3.8294
-3.87003
-3.91047
-3.94983
-3.98705
-4.02054
-4.04907
-3.59747
-3.60007
-3.60545
-3.61364
-3.62446
-3.63798
-3.65411
-3.67277
-3.69384
-3.71724
-3.74281
-3.77042
-3.79986
-3.83091
-3.86332
-3.89675
-3.93078
-3.9649
-3.99852
-4.03087
-4.06118
-4.08838
-4.11176
-3.74348
-3.74577
-3.75061
-3.75796
-3.76765
-3.77974
-3.79413
-3.81072
-3.8294
-3.85007
-3.87257
-3.89675
-3.92242
-3.94935
-3.97729
-4.00593
-4.03488
-4.06372
-4.09193
-4.11894
-4.14417
-4.1669
-4.18671
-3.88747
-3.88948
-3.89382
-3.9004
-3.90903
-3.91979
-3.93255
-3.94722
-3.9637
-3.98185
-4.00156
-4.02265
-4.04495
-4.06825
-4.09231
-4.11684
-4.14153
-4.166
-4.18986
-4.21266
-4.23397
-4.25333
-4.27049
-4.02969
-4.03147
-4.03535
-4.0412
-4.04885
-4.05837
-4.06962
-4.08252
-4.09696
-4.11283
-4.13
-4.14831
-4.16761
-4.18771
-4.20839
-4.2294
-4.25047
-4.2713
-4.29158
-4.31097
-4.32918
-4.34587
-4.36094
-4.17038
-4.17198
-4.17541
-4.18059
-4.18733
-4.19568
-4.20554
-4.21681
-4.22939
-4.24318
-4.25805
-4.27388
-4.29051
-4.30778
-4.3255
-4.34347
-4.36145
-4.3792
-4.39649
-4.41306
-4.42869
-4.44319
-4.45649
-4.30976
-4.31121
-4.31422
-4.31877
-4.32465
-4.33193
-4.34049
-4.35025
-4.36114
-4.37304
-4.38584
-4.39944
-4.41369
-4.42847
-4.4436
-4.45891
-4.47422
-4.48934
-4.50407
-4.51823
-4.53168
-4.54428
-4.55601
-4.44802
-4.44932
-4.45193
-4.4559
-4.46097
-4.46725
-4.47462
-4.48301
-4.49234
-4.50253
-4.51347
-4.52506
-4.5372
-4.54976
-4.5626
-4.57558
-4.58856
-4.60137
-4.61388
-4.62595
-4.63748
-4.64837
-4.65864
-4.58533
-4.58647
-4.58871
-4.59213
-4.59645
-4.60181
-4.60808
-4.61521
-4.62313
-4.63175
-4.641
-4.6508
-4.66104
-4.67162
-4.68242
-4.69334
-4.70425
-4.71503
-4.72557
-4.73577
-4.74556
-4.75488
-4.76374
-4.7218
-4.72277
-4.72467
-4.72759
-4.73121
-4.73572
-4.74098
-4.74695
-4.75359
-4.7608
-4.76852
-4.77669
-4.78522
-4.79402
-4.80301
-4.81208
-4.82114
-4.8301
-4.83887
-4.84737
-4.85555
-4.86338
-4.87088
-4.85756
-4.85833
-4.85994
-4.86238
-4.86536
-4.86909
-4.87343
-4.87835
-4.88381
-4.88973
-4.89608
-4.90277
-4.90976
-4.91697
-4.92431
-4.93172
-4.93912
-4.94643
-4.95359
-4.96053
-4.96723
-4.97365
-4.97983
-4.9927
-4.99327
-4.99462
-4.99661
-4.99901
-5.00203
-5.00552
-5.00948
-5.01387
-5.01862
-5.02371
-5.02909
-5.03468
-5.04044
-5.04631
-5.05222
-5.05811
-5.06394
-5.06963
-5.07516
-5.08049
-5.0856
-5.09053
-5.12734
-5.12768
-5.12879
-5.13038
-5.13224
-5.13461
-5.13732
-5.14042
-5.14383
-5.14753
-5.15149
-5.15566
-5.16
-5.16446
-5.16899
-5.17355
-5.1781
-5.18258
-5.18696
-5.1912
-5.19528
-5.1992
-5.203
-5.26155
-5.26165
-5.26256
-5.26376
-5.26514
-5.26691
-5.26892
-5.27122
-5.27375
-5.2765
-5.27943
-5.28251
-5.28572
-5.289
-5.29234
-5.29569
-5.29903
-5.30231
-5.30551
-5.3086
-5.31157
-5.31443
-5.31721
-5.39544
-5.39531
-5.39604
-5.39686
-5.3978
-5.39903
-5.40039
-5.40197
-5.4037
-5.40557
-5.40757
-5.40967
-5.41185
-5.41408
-5.41634
-5.4186
-5.42085
-5.42306
-5.42521
-5.42728
-5.42926
-5.43117
-5.43305
-5.529
-5.52873
-5.5293
-5.52976
-5.53029
-5.53101
-5.53179
-5.5327
-5.53369
-5.53477
-5.53592
-5.53712
-5.53836
-5.53963
-5.54092
-5.5422
-5.54348
-5.54472
-5.54593
-5.54709
-5.5482
-5.54927
-5.55032
-5.66268
-5.66224
-5.66249
-5.66262
-5.6628
-5.66304
-5.66328
-5.66358
-5.66388
-5.66422
-5.66458
-5.66495
-5.66533
-5.66572
-5.66611
-5.66649
-5.66688
-5.66725
-5.66761
-5.66795
-5.66828
-5.66861
-5.66894
330.244
325.223
319.7
315.811
193.704
180.477
160.466
144.636
102.981
100.286
87.4497
75.3761
60.5555
60.4128
60.3956
60.4311
59.7943
59.5281
59.4509
59.6639
59.0988
58.8459
58.7842
58.9266
59.1922
59.0552
59.0649
59.1651
58.8502
59.351
59.7352
59.6732
54.5538
62.927
64.2005
63.0989
67.4244
84.7811
84.2971
81.5224
31.808
47.6683
67.2545
86.9374
6.7235
13.3359
16.803
19.2678
-3.20727
-3.74632
-4.45658
-4.5332
-3.47544
-3.62477
-3.80077
-4.00393
-3.90986
-4.10838
-4.30459
-4.47232
-4.44068
-4.66245
-4.86165
-5.00323
-4.94894
-5.15263
-5.36404
-5.54862
-5.31271
-5.58334
-5.80864
-5.99938
-5.25565
-5.52379
-5.72486
-5.83892
-4.89407
-4.98947
-5.02761
-5.02184
-4.509
-4.55971
-4.57839
-4.56162
-4.17302
-4.1977
-4.20912
-4.20331
-4.03289
-4.04657
-4.0535
-4.05243
-4.00697
-4.01649
-4.02174
-4.0226
-4.02198
-4.02955
-4.03456
-4.03703
-4.06373
-4.07071
-4.07612
-4.07989
-4.12455
-4.13107
-4.13656
-4.14104
-4.1981
-4.20423
-4.20964
-4.21439
-4.28082
-4.2866
-4.29186
-4.29662
-4.37037
-4.3758
-4.38082
-4.38548
-4.46509
-4.47016
-4.4749
-4.47936
-4.5638
-4.56847
-4.57289
-4.5771
-4.66561
-4.66983
-4.67388
-4.67776
-4.76985
-4.77359
-4.77719
-4.78067
-4.87609
-4.87931
-4.88242
-4.88543
-4.98415
-4.98682
-4.98942
-4.99194
-5.094
-5.09614
-5.09823
-5.10027
-5.20568
-5.20735
-5.20898
-5.21059
-5.31919
-5.32043
-5.32165
-5.32288
-5.4344
-5.43525
-5.43611
-5.43701
-5.55109
-5.55158
-5.5521
-5.55265
-5.66919
-5.66935
-5.66953
-5.66974
308.305
231.954
145.587
146.87
239.304
447.027
418.966
375.239
367.763
366.073
365.952
365.958
343.489
360.902
210.633
202.433
210.122
181.518
230.404
141.562
144.568
89.4467
95.8801
116.007
252.052
360.18
368.858
368.359
368.653
369.994
364.957
278.014
241.539
205.457
198.32
203.176
195.634
211.901
68.0625
65.6577
68.2024
70.4256
85.8279
186.843
355.318
368.457
367.638
368.243
367.082
322.54
240.015
213.557
204.083
197.643
202.299
204.807
203.913
60.507
60.485
61.1872
59.7596
56.824
157.037
336.362
363.33
363.035
363.746
368.991
281.996
213.093
210.006
204.802
201.197
208.537
216.733
199.845
60.165
61.0116
61.4678
61.5601
60.5876
112.014
257.587
339.04
350.463
342.671
369.108
243.146
215.92
209.738
204.365
206.217
223.06
241.921
218.468
59.4451
60.5519
61.6382
61.9676
62.2652
69.7194
191.72
264.842
312.562
365.584
290.012
177.391
189.965
198.948
197.821
207.56
234.582
258.373
230.571
59.4819
60.3349
61.5566
61.9669
63.9394
70.1801
164.164
235.765
268.255
227.374
98.0416
69.5773
124.221
164.102
167.846
179.768
204.726
228.909
192.833
59.8088
60.6788
61.1609
61.4514
59.1538
84.8969
153.78
193.685
151.296
42.0671
18.8437
8.59262
26.5056
78.1539
103.5
124.38
150.903
161.301
117.817
63.1357
59.9566
50.7775
38.6025
71.4958
139.039
184.59
161.526
80.3825
11.9769
4.95779
2.18505
1.26324
6.39285
8.90474
11.4151
30.3527
62.4387
48.2974
73.3355
71.6877
75.0874
75.7162
86.0829
125.262
146.418
120.798
55.2219
7.43914
2.70852
1.44236
0.842547
0.345128
0.355269
0.917568
2.91053
10.3613
41.8457
108.507
124.902
118.199
84.8165
70.8972
90.143
96.7421
70.5918
-2.2145
-8.93377
-0.183718
0.718013
0.0980118
-0.120548
-0.126491
-0.0424218
0.547161
3.62888
10.4594
26.6591
46.3137
58.2407
56.6663
47.7679
42.1008
29.687
14.3848
-7.47367
-9.09841
-1.70989
-0.249158
-0.671399
-0.6958
-0.651893
-0.547247
-0.12402
1.86611
3.18651
1.07866
17.0257
22.3386
23.0467
14.152
8.43802
-2.50033
-4.8625
-6.52382
-6.13055
-2.6058
-1.37041
-1.36955
-1.27258
-1.12658
-0.956744
-0.765165
0.754906
1.6381
-4.24744
-3.7847
-3.11664
-3.61392
-4.20017
-4.13692
-4.45521
-5.03766
-5.67865
-4.80324
-3.23195
-2.48389
-2.06473
-1.85336
-1.58897
-1.37259
-1.37033
0.212815
0.955043
-4.52389
-4.0318
-3.59473
-3.64661
-3.80784
-3.98004
-4.28694
-4.49884
-4.83838
-4.57567
-3.89556
-3.29875
-2.68682
-2.38557
-2.10686
-2.02958
-2.16356
-1.62826
4.35118
-5.02599
-4.38316
-3.70627
-3.41396
-3.26212
-3.25802
-3.49552
-3.89724
-4.42926
-4.65566
-4.3369
-3.72569
-3.11714
-2.77011
-2.54424
-2.57847
-2.54752
-4.26226
-0.777949
-5.69011
-4.81576
-3.75491
-3.21637
-2.9383
-2.89016
-3.1149
-3.60953
-4.23382
-4.58219
-4.41754
-3.87268
-3.34617
-3.01651
-2.81307
-2.77246
-2.45335
-3.3964
0.945954
-6.2155
-5.05166
-3.80455
-3.19954
-2.92846
-2.89684
-3.09233
-3.52812
-4.05467
-4.33431
-4.21904
-3.82851
-3.45031
-3.19215
-3.02557
-2.96126
-2.56753
-2.69123
-1.62977
-5.82597
-4.82668
-3.83498
-3.29541
-3.09142
-3.09474
-3.24206
-3.51895
-3.83644
-4.02019
-3.97049
-3.76024
-3.54067
-3.38309
-3.34113
-3.37507
-3.39975
-4.36012
-0.725519
-4.95045
-4.45754
-3.84801
-3.44947
-3.2982
-3.30336
-3.39977
-3.56151
-3.74109
-3.86076
-3.86497
-3.7743
-3.66342
-3.58787
-3.63911
-3.85096
-4.31766
-5.38762
-4.58322
-4.4777
-4.19468
-3.84184
-3.58773
-3.48804
-3.49189
-3.55368
-3.65232
-3.76404
-3.84957
-3.87519
-3.84414
-3.79915
-3.78144
-3.87658
-4.20164
-4.51923
-5.00404
-4.76985
-4.16966
-4.0364
-3.85158
-3.70967
-3.64741
-3.64789
-3.68762
-3.75204
-3.82744
-3.89289
-3.92907
-3.93448
-3.93519
-3.96269
-4.09721
-4.44355
-4.74073
-4.96597
-4.84397
-4.03883
-3.98109
-3.89254
-3.81581
-3.77806
-3.77832
-3.80565
-3.85088
-3.90637
-3.96149
-4.00506
-4.03414
-4.06616
-4.1283
-4.29099
-4.70933
-5.10138
-5.13395
-4.90002
-4.01731
-3.9906
-3.94725
-3.90711
-3.88673
-3.88916
-3.91005
-3.94483
-3.99017
-4.04082
-4.08975
-4.13384
-4.18505
-4.26816
-4.43111
-4.88483
-5.37076
-5.28617
-5.2105
-4.03751
-4.02805
-4.00942
-3.99104
-3.98236
-3.98714
-4.00458
-4.03356
-4.07393
-4.12322
-4.17616
-4.22898
-4.28761
-4.37317
-4.4989
-4.88186
-5.11203
-5.1165
-4.66082
-4.08383
-4.08383
-4.07819
-4.07194
-4.07052
-4.07698
-4.09217
-4.11774
-4.15613
-4.20584
-4.26156
-4.31761
-4.37272
-4.44154
-4.50951
-4.70364
-4.75535
-4.74957
-4.07938
-4.14727
-4.15192
-4.15311
-4.15345
-4.15602
-4.16295
-4.17595
-4.19924
-4.23698
-4.28712
-4.34356
-4.39791
-4.44095
-4.48036
-4.48551
-4.50631
-4.48547
-4.3864
-4.15655
-4.22155
-4.22896
-4.2338
-4.23761
-4.24213
-4.24866
-4.25944
-4.28084
-4.3174
-4.36592
-4.42029
-4.46926
-4.49581
-4.50392
-4.45652
-4.3584
-4.29695
-4.20983
-4.12831
-4.3041
-4.3129
-4.31979
-4.32561
-4.33127
-4.33737
-4.34636
-4.36546
-4.39839
-4.44156
-4.48974
-4.52981
-4.53988
-4.5223
-4.42984
-4.29623
-4.21428
-4.15937
-4.11617
-4.39294
-4.40238
-4.41048
-4.41775
-4.42454
-4.43105
-4.43933
-4.45525
-4.48127
-4.51448
-4.55058
-4.57767
-4.57455
-4.54791
-4.45109
-4.3197
-4.24458
-4.20128
-4.16281
-4.48662
-4.49624
-4.50501
-4.51334
-4.52137
-4.52919
-4.53794
-4.55053
-4.56814
-4.58888
-4.60945
-4.62224
-4.60642
-4.58857
-4.49726
-4.40373
-4.34112
-4.29666
-4.25864
-4.58399
-4.59339
-4.60232
-4.6111
-4.61989
-4.62887
-4.63841
-4.64879
-4.66001
-4.67093
-4.67981
-4.68223
-4.66815
-4.64385
-4.57848
-4.51523
-4.45799
-4.41512
-4.37964
-4.68414
-4.69296
-4.70151
-4.70998
-4.71851
-4.72734
-4.73671
-4.74595
-4.75421
-4.76054
-4.76383
-4.76162
-4.74838
-4.72451
-4.67913
-4.62894
-4.57809
-4.54345
-4.51136
-4.7864
-4.79437
-4.80215
-4.80978
-4.8173
-4.82489
-4.83289
-4.8409
-4.84797
-4.85303
-4.85462
-4.85114
-4.83895
-4.81739
-4.78221
-4.74277
-4.70264
-4.6775
-4.64605
-4.89041
-4.89737
-4.90418
-4.91083
-4.91727
-4.92358
-4.93009
-4.93676
-4.94287
-4.94749
-4.9491
-4.9462
-4.93624
-4.919
-4.89208
-4.86376
-4.83474
-4.81598
-4.77913
-4.99612
-5.00203
-5.0079
-5.01368
-5.01936
-5.02495
-5.03078
-5.03677
-5.04224
-5.04665
-5.04909
-5.04807
-5.04127
-5.02946
-5.01032
-4.99153
-4.97321
-4.9595
-4.93065
-5.1037
-5.10867
-5.11373
-5.11889
-5.12416
-5.12954
-5.13535
-5.14136
-5.14688
-5.15156
-5.15498
-5.15591
-5.15233
-5.14537
-5.13301
-5.12197
-5.11284
-5.10494
-5.10705
-5.21333
-5.2175
-5.22192
-5.22667
-5.23177
-5.23723
-5.24326
-5.2495
-5.25544
-5.26082
-5.26534
-5.26795
-5.26728
-5.26427
-5.25753
-5.25221
-5.2486
-5.24574
-5.26152
-5.32502
-5.32849
-5.33239
-5.33682
-5.34185
-5.34745
-5.35372
-5.36029
-5.36682
-5.37309
-5.37882
-5.38305
-5.38505
-5.38522
-5.38294
-5.38165
-5.38075
-5.38044
-5.38806
-5.43863
-5.44138
-5.44477
-5.44893
-5.45391
-5.45966
-5.46619
-5.4732
-5.48048
-5.48776
-5.49471
-5.50055
-5.5049
-5.50776
-5.50904
-5.51072
-5.51174
-5.51357
-5.51744
-5.55369
-5.55573
-5.55862
-5.56251
-5.56743
-5.57335
-5.58022
-5.58785
-5.59603
-5.60441
-5.61259
-5.62001
-5.62641
-5.63171
-5.63602
-5.64023
-5.64329
-5.64668
-5.64881
-5.67014
-5.67126
-5.67354
-5.67709
-5.68192
-5.68806
-5.69542
-5.70385
-5.71308
-5.72266
-5.73216
-5.74109
-5.74943
-5.75712
-5.76433
-5.77146
-5.77667
-5.78223
-5.7834
)
;

boundaryField
{
    leftWall
    {
        type            calculated;
        value           nonuniform List<scalar> 
50
(
531.62
472.257
410.984
348.47
285.597
222.819
160.127
97.1253
35.6668
7.30026
2.26847
1.56562
1.0052
0.520249
0.17423
-0.0620666
-0.286844
-0.527612
-0.750613
-0.95586
-1.16168
-1.36817
-1.5704
-1.76647
-1.95658
-2.14087
-2.31963
-2.49327
-2.66218
-2.82676
-2.98739
-3.14443
-3.29824
-3.44915
-3.59747
-3.74348
-3.88747
-4.02969
-4.17038
-4.30976
-4.44802
-4.58533
-4.7218
-4.85756
-4.9927
-5.12734
-5.26155
-5.39544
-5.529
-5.66268
)
;
    }
    rightWall
    {
        type            calculated;
        value           nonuniform List<scalar> 
50
(
1183.92
1117.62
1054.15
1031.65
1027.54
959.143
695.715
414.036
230.404
211.901
203.913
199.845
218.468
230.571
192.833
117.817
48.2974
41.8457
10.4594
3.18651
1.6381
0.955043
4.35118
-0.777949
0.945954
-1.62977
-0.725519
-4.58322
-4.76985
-4.84397
-4.90002
-5.2105
-4.66082
-4.07938
-4.15655
-4.12831
-4.11617
-4.16281
-4.25864
-4.37964
-4.51136
-4.64605
-4.77913
-4.93065
-5.10705
-5.26152
-5.38806
-5.51744
-5.64881
-5.7834
)
;
    }
    lowerWall
    {
        type            calculated;
        value           nonuniform List<scalar> 
62
(
561.049
560.695
562.044
565.627
573.499
588.205
609.789
634.081
657.383
679.831
702.168
724.632
747.061
768.888
789.036
806.65
820.42
825.392
825.612
828.621
840.601
866.735
880.898
851.491
788.024
724.508
662.443
601.443
541.072
482.472
425.344
392.841
387.821
382.298
378.409
797.931
743.423
666.923
576.952
499.185
443.738
406.322
372.662
824.187
725.028
697.057
761.657
862.82
926.708
846.046
827.904
926.445
939.171
847.993
931.971
1472.63
2257.8
2347.58
1689.76
1259.91
1168.04
1212.76
)
;
    }
    atmosphere
    {
        type            calculated;
        value           nonuniform List<scalar> 
46
(
-5.72904
-5.72904
-5.72904
-5.72904
-5.72904
-5.72904
-5.72904
-5.72904
-5.72904
-5.72904
-5.72904
-5.72904
-5.72904
-5.72904
-5.72904
-5.72904
-5.72904
-5.72904
-5.72904
-5.72904
-5.72904
-5.72904
-5.72904
-5.72904
-5.72904
-5.72904
-5.72904
-5.72904
-5.72955
-5.73144
-5.7348
-5.73954
-5.74584
-5.75342
-5.76228
-5.7721
-5.78233
-5.79258
-5.8022
-5.81157
-5.82047
-5.82932
-5.83868
-5.84471
-5.85288
-5.85248
)
;
    }
    defaultFaces
    {
        type            empty;
    }
}


// ************************************************************************* //
