/*--------------------------------*- C++ -*----------------------------------*\
| =========                 |                                                 |
| \\      /  F ield         | OpenFOAM: The Open Source CFD Toolbox           |
|  \\    /   O peration     | Version:  5.x                                   |
|   \\  /    A nd           | Web:      www.OpenFOAM.org                      |
|    \\/     M anipulation  |                                                 |
\*---------------------------------------------------------------------------*/
FoamFile
{
    version     2.0;
    format      ascii;
    class       volScalarField;
    location    "0.75";
    object      p_rgh;
}
// * * * * * * * * * * * * * * * * * * * * * * * * * * * * * * * * * * * * * //

dimensions      [1 -1 -2 0 0 0 0];

internalField   nonuniform List<scalar> 
2268
(
561.049
560.695
562.044
565.627
573.499
588.205
609.789
634.081
657.383
679.831
702.168
724.632
747.061
768.888
789.036
806.65
820.42
825.392
825.612
828.621
840.601
866.735
880.898
560.545
559.618
560.793
564.169
571.534
586.379
608.73
633.655
657.261
679.781
702.171
724.701
747.231
769.262
789.695
807.548
822.339
826.882
825.08
825.154
833.336
857.324
876.312
558.131
556.835
558.219
561.525
568.243
583.015
606.412
632.731
657.044
679.705
702.082
724.645
747.31
769.592
790.465
808.831
824.524
834.283
829.259
819.699
826.81
847.94
871.655
554.476
552.869
554.503
557.554
563.338
577.894
603.107
631.678
657.009
679.755
702.024
724.628
747.553
770.319
791.845
810.819
826.508
837.385
838.44
829.994
829.665
852.592
868.428
550.461
548.272
549.918
552.654
558.078
573.23
600.695
631.436
657.443
680.016
702.034
724.636
747.893
771.367
793.833
813.616
829.412
840.098
843.433
841.512
845.016
855.124
866.307
546.542
543.387
544.71
547.232
553.407
569.624
600.138
632.177
658.188
680.414
702.07
724.57
748.188
772.591
796.324
817.196
833.259
843.792
848.681
847.655
851.64
856.659
864.795
542.709
539.068
539.304
542.34
550.455
569.691
600.368
632.813
658.391
680.432
701.934
724.418
748.44
774.022
799.408
821.633
837.869
847.668
852.018
852
854.825
857.913
865.054
538.566
533.466
523.483
519.741
520.668
535.964
575.052
630.856
658.135
680.092
701.424
723.824
748.248
775.348
803.02
827.076
843.411
852.005
855.104
855.08
856.934
858.882
866.785
824.187
725.028
697.057
761.657
862.82
926.708
846.046
827.904
926.445
939.171
847.993
931.971
1472.63
2257.8
2347.58
1689.76
1259.91
1168.04
1212.76
822.923
694.433
666.881
746.748
849.849
910.4
811.917
818.606
929.82
892.76
720.485
796.809
1398.59
2215.05
2435.92
1637.79
1073.25
1088.79
1205.91
806.274
650.82
633.771
731.562
842.302
895.966
782.268
799.669
868.049
693.408
502.687
650.16
1210.19
2062.95
2155.54
1391.5
1043.55
1019.23
1142.7
782.905
609.461
583.272
713.27
850.577
908.251
803.195
787.477
708.751
454.467
413.865
551.749
1109.29
1816.14
1780.2
1271.4
943.426
923.491
1032.17
764.049
591.109
522.125
693.193
875.68
959.388
872.209
747.198
478.294
386.438
383.601
455.757
969.148
1504.81
1407.22
1006.46
743.39
861.001
1068.75
767.461
529.752
522.239
695.717
901.077
1035.49
948.897
653.216
389.201
372.273
373.963
401.723
761.86
1231.63
1120.34
684.969
494.683
764.114
1229.29
788.903
534.13
543.978
727.149
906.434
1086.82
979.62
524.642
375.314
368.266
370.535
395.357
717.277
1021.6
869.653
327.822
361.591
595.818
1077.22
715.185
597.319
634.323
647.011
850.21
1077.61
921.722
420.555
370.606
367.003
367.828
525.912
725.489
884.966
666.526
209.593
296.488
410.682
695.39
258.741
238.64
226.763
236.707
285.066
377.043
486.584
579.744
641.139
677.909
699.823
722.191
747.296
777.16
809.137
837.213
853.499
859.6
860.055
859.019
859.331
859.781
863.849
49.6118
29.4459
42.802
55.6385
71.6535
106.775
169.892
249.538
339.939
435.63
532.711
612.305
668.341
727.564
798.215
850.872
863.724
857.737
854.887
863.127
862.535
859.078
857.366
3.05205
2.78016
2.3993
2.00837
1.78865
1.81527
1.88699
1.83484
2.09877
20.4291
68.5076
127.931
186.363
287.193
434.614
548.473
585.091
594.203
619.738
628.198
596.835
549.307
560.346
2.47462
2.23585
1.98739
1.75419
1.63635
1.61817
1.62223
1.53662
1.25454
0.801754
0.403085
0.233534
2.35243
29.0378
264.398
509.501
550.319
381.083
154.021
70.3652
62.7532
62.5479
62.3394
2.03945
1.79424
1.60349
1.45422
1.41686
1.39126
1.30856
1.12597
0.865944
0.719678
0.793279
1.06814
1.67242
9.12879
60.9054
94.2612
89.7633
52.1613
58.0847
60.9507
62.0408
62.262
61.9656
1.67969
1.41804
1.31826
1.22855
1.25684
1.26435
1.22367
1.13207
1.01284
0.929413
0.952715
1.14631
1.43562
1.68946
1.81527
2.82887
55.6212
151.267
165.4
78.0469
61.932
61.6743
61.4757
1.45886
1.16637
1.14436
1.06804
1.15546
1.17147
1.15234
1.1041
1.04775
1.0194
1.06737
1.20241
1.34817
1.46318
1.58498
2.05229
5.36529
108.669
375.473
416.395
182.764
61.9488
61.7887
1.34776
1.14067
1.07145
1.04304
1.08757
1.10326
1.08432
1.04513
1.00387
0.986443
1.01235
1.06608
1.10999
1.09426
1.02183
0.955054
1.5092
7.43891
192.161
508.474
539.761
331.095
76.3026
1.24818
1.18438
1.11418
1.06673
1.06285
1.05357
1.02547
0.98634
0.945566
0.916044
0.902883
0.897472
0.874739
0.799401
0.649599
0.399613
0.165509
0.62721
20.2387
344.763
590.989
616.991
552.278
1.13261
1.15819
1.12081
1.06491
1.029
0.99655
0.958729
0.916781
0.873552
0.832751
0.793558
0.749826
0.685463
0.576238
0.39633
0.114617
-0.248484
-0.475516
-0.193659
18.7292
426.326
662.121
677.911
1.0348
1.07187
1.05019
1.00476
0.963302
0.922735
0.880435
0.835754
0.788526
0.739737
0.685819
0.621178
0.534512
0.409787
0.230982
-0.0182075
-0.323513
-0.59626
-0.736896
-0.579493
0.700927
262.958
688.736
0.954746
0.972924
0.951811
0.918144
0.881143
0.841076
0.798352
0.752305
0.702139
0.647247
0.584355
0.509245
0.413946
0.288556
0.125836
-0.0787214
-0.317488
-0.544877
-0.694031
-0.714746
-0.675635
-0.955484
-0.476614
0.874122
0.876235
0.857987
0.831294
0.798322
0.760411
0.718462
0.671975
0.619991
0.561417
0.493872
0.414497
0.317825
0.198362
0.0531955
-0.115976
-0.305728
-0.488128
-0.631733
-0.683922
-0.671789
-0.693044
-0.764604
0.792824
0.787759
0.77303
0.749925
0.719773
0.683863
0.642874
0.596418
0.543719
0.483779
0.414885
0.334728
0.240158
0.128044
-0.00287259
-0.149803
-0.306013
-0.455882
-0.585459
-0.655117
0.955266
1.23948
-1.08969
0.71579
0.709373
0.695714
0.674518
0.646544
0.612444
0.572666
0.526888
0.474537
0.414799
0.346411
0.267689
0.176704
0.071624
-0.0481268
-0.18031
-0.31971
-0.457637
-0.587174
-0.742816
0.945839
3.69612
-1.31334
0.644913
0.638368
0.625321
0.60549
0.579259
0.546851
0.508555
0.464067
0.412927
0.35447
0.287776
0.211688
0.124905
0.0261979
-0.0849869
-0.207538
-0.338753
-0.476504
-0.618243
-0.800454
1.06864
5.49084
-0.900644
0.579995
0.573605
0.561366
0.542709
0.517997
0.487249
0.450637
0.407866
0.358562
0.30219
0.238083
0.165414
0.0831797
-0.00962235
-0.113743
-0.229269
-0.355557
-0.494753
-0.651849
-0.857598
0.718949
5.52372
3.22439
0.520904
0.514843
0.503363
0.485788
0.462504
0.433447
0.39869
0.357965
0.310978
0.257299
0.196425
0.127718
0.050368
-0.0365443
-0.133971
-0.242952
-0.364534
-0.503003
-0.671574
-0.894453
-0.860355
5.0197
5.98434
0.467337
0.461681
0.45088
0.434372
0.412501
0.385187
0.352436
0.314018
0.269695
0.21914
0.161958
0.0976412
0.0255491
-0.0551472
-0.145476
-0.246896
-0.36135
-0.493315
-0.65524
-0.855306
-1.22556
-1.17685
3.77337
0.418891
0.413651
0.403526
0.388105
0.367669
0.342147
0.311504
0.275563
0.234137
0.186987
0.133815
0.0742366
0.00776531
-0.06626
-0.148733
-0.240956
-0.344729
-0.463363
-0.603966
-0.779068
-1.06021
-1.43629
-1.63789
0.375175
0.370333
0.360912
0.34659
0.327607
0.303905
0.27543
0.242058
0.203662
0.160079
0.11111
0.0564932
-0.00410056
-0.0711128
-0.145143
-0.22703
-0.317881
-0.419479
-0.534531
-0.670151
-0.847956
-1.09299
-1.33721
0.335794
0.331335
0.322632
0.309409
0.291886
0.270007
0.243721
0.212952
0.177637
0.137681
0.0929797
0.0433903
-0.0112645
-0.071207
-0.136724
-0.20819
-0.286035
-0.370854
-0.463064
-0.564139
-0.676646
-0.809653
-0.946038
0.30036
0.296282
0.288299
0.276159
0.260081
0.240003
0.215888
0.187711
0.155457
0.119101
0.0786158
0.0339644
-0.0148984
-0.0680215
-0.125448
-0.187222
-0.253329
-0.323686
-0.39784
-0.475325
-0.554491
-0.634
-0.709405
0.26851
0.264814
0.257536
0.246452
0.23178
0.213455
0.19146
0.165822
0.136559
0.103703
0.0672903
0.0273657
-0.0160124
-0.0627708
-0.112797
-0.165929
-0.221907
-0.280333
-0.340521
-0.401543
-0.461831
-0.518598
-0.569259
0.239894
0.236577
0.229972
0.219908
0.206586
0.189945
0.17
0.14681
0.120427
0.0909208
0.058373
0.022889
-0.0154049
-0.0563518
-0.0997482
-0.14532
-0.192682
-0.241308
-0.290465
-0.33916
-0.386104
-0.429027
-0.465898
0.214179
0.211231
0.205261
0.196163
0.184128
0.169091
0.151107
0.130249
0.106602
0.0802565
0.0513276
0.0199577
-0.0136867
-0.0494027
-0.086939
-0.125972
-0.166074
-0.206697
-0.247141
-0.286496
-0.32372
-0.357209
-0.385737
0.191055
0.188455
0.183075
0.174883
0.16406
0.150542
0.134412
0.115758
0.0946827
0.0712891
0.0457114
0.0181087
-0.0113315
-0.0423885
-0.0747953
-0.108222
-0.142252
-0.176379
-0.209994
-0.24235
-0.272659
-0.299857
-0.323236
0.170235
0.167949
0.163111
0.15576
0.146071
0.133981
0.119591
0.103002
0.0843171
0.0636536
0.0411509
0.0169708
-0.00869649
-0.0356317
-0.0635743
-0.0922096
-0.121164
-0.149999
-0.178212
-0.205224
-0.23045
-0.253181
-0.27299
0.151443
0.149431
0.14509
0.138517
0.129881
0.119127
0.106361
0.0916911
0.0752175
0.0570614
0.037358
0.0162653
-0.00603463
-0.0293343
-0.0533938
-0.0779296
-0.102616
-0.127091
-0.150948
-0.173745
-0.195061
-0.214418
-0.231575
0.134419
0.132636
0.128758
0.122907
0.115253
0.105743
0.0944866
0.0815894
0.0671465
0.0512784
0.0341127
0.0157966
-0.00350429
-0.0236013
-0.0442787
-0.0652901
-0.0863608
-0.107195
-0.127473
-0.146864
-0.165067
-0.181764
-0.196831
0.118923
0.117325
0.113888
0.108709
0.101972
0.0936183
0.0837627
0.0724973
0.0599149
0.0461273
0.0312534
0.0154264
-0.00120544
-0.0184766
-0.0361991
-0.0541634
-0.0721433
-0.0899002
-0.107186
-0.123753
-0.13939
-0.153888
-0.167189
0.104736
0.103292
0.100279
0.095726
0.0898489
0.0825711
0.07401
0.0642441
0.0533607
0.0414623
0.0286565
0.0150603
0.00080396
-0.0139692
-0.0290993
-0.0444115
-0.0597215
-0.0748382
-0.0895696
-0.103734
-0.117185
-0.129784
-0.141512
0.0916682
0.090369
0.0877583
0.0837888
0.0787178
0.0724375
0.06507
0.0566807
0.0473477
0.0371651
0.0262261
0.0146314
0.00249396
-0.0100632
-0.0229055
-0.0358884
-0.048863
-0.0616777
-0.0741859
-0.0862562
-0.0977861
-0.108683
-0.118948
0.0795614
0.0784181
0.0761776
0.072753
0.0684345
0.0630764
0.0568079
0.0496794
0.0417597
0.0331348
0.0238823
0.0140882
0.00384965
-0.00672945
-0.0175369
-0.0284551
-0.0393637
-0.0501432
-0.060682
-0.0708837
-0.0806743
-0.0899919
-0.0988533
0.068283
0.0673147
0.0654062
0.0624931
0.0588719
0.0543627
0.0491043
0.0431264
0.0364945
0.0292843
0.0215584
0.0133903
0.00486145
-0.00394185
-0.0129275
-0.0220001
-0.0310628
-0.0400208
-0.0487877
-0.0572904
-0.0654739
-0.0733009
-0.0807949
0.0577186
0.0569426
0.0553312
0.0528956
0.0499151
0.0461834
0.0418505
0.0369228
0.0314665
0.0255427
0.0192003
0.0125016
0.00551423
-0.00168993
-0.00903533
-0.0164454
-0.0238437
-0.0311555
-0.0383129
-0.0452589
-0.0519536
-0.0583761
-0.0645504
0.0477655
0.0471976
0.0458525
0.0438586
0.0414622
0.0384412
0.0349548
0.0309872
0.0266035
0.0218467
0.0167553
0.0113832
0.00578733
2.70391e-05
-0.00583761
-0.0117473
-0.0176431
-0.0234665
-0.0291637
-0.0346901
-0.040017
-0.0451321
-0.0500635
0.0383246
0.0379851
0.0368734
0.0352893
0.0334241
0.0310545
0.0283413
0.0252473
0.0218367
0.0181355
0.0141766
0.0100056
0.00566757
0.00120855
-0.00332569
-0.00788889
-0.0124342
-0.016916
-0.0212938
-0.0255344
-0.0296172
-0.0335388
-0.0373376
0.0293078
0.0292094
0.0282949
0.0270984
0.0257186
0.0239449
0.0219361
0.0196351
0.017107
0.0143629
0.0114311
0.00834691
0.00514309
0.00185489
-0.00148277
-0.00483519
-0.00816771
-0.0114484
-0.0146472
-0.0177385
-0.0207087
-0.0235662
-0.026351
0.0206167
0.0207477
0.0200158
0.0191919
0.0182546
0.0170265
0.0156594
0.0140805
0.0123555
0.0104811
0.00848124
0.00638166
0.00420505
0.00197561
-0.000283647
-0.00255053
-0.0048003
-0.00700957
-0.00915521
-0.0112215
-0.0132049
-0.0151183
-0.0169953
0.0122464
0.0125198
0.011947
0.0114884
0.0109533
0.0102351
0.00945666
0.00854362
0.00755538
0.00647712
0.00532892
0.00412716
0.00288502
0.00161483
0.000329792
-0.000955755
-0.00222741
-0.00347314
-0.00468004
-0.00583921
-0.00694895
-0.00801814
-0.00907595
0.00376754
0.00420047
0.00395349
0.00381891
0.00364455
0.00339876
0.00316019
0.00286464
0.0025588
0.0022208
0.00186513
0.00149478
0.00111331
0.000724536
0.000334509
-5.16327e-05
-0.000432608
-0.000805931
-0.00116565
-0.00150982
-0.00184166
-0.00216718
-0.00249716
863.711
858.69
853.167
849.279
852.332
839.101
814.764
784.97
619.546
588.804
432.598
266.83
62.0248
61.8808
61.8602
61.895
61.4647
61.1944
61.1164
61.3295
60.9908
60.7213
60.6522
60.7938
61.4452
61.2058
61.159
61.2401
62.4579
62.4467
62.3509
62.0764
150.49
120.365
79.5827
67.6937
713.479
744.447
444.226
263.597
741.161
762.752
784.001
808.138
382.107
631.071
716.275
771.971
-1.16896
-1.69199
-2.41132
-2.47807
-1.2973
-1.44592
-1.61996
-1.81868
-1.60579
-1.80405
-1.99936
-2.16492
-2.01015
-2.23142
-2.42785
-2.55519
-2.39182
-2.59549
-2.80339
-2.78484
3.50601
-0.437714
-1.92585
-1.86931
5.72791
5.62777
5.52264
5.40857
-0.865805
-0.053338
-0.0423115
0.9456
-1.46898
-1.52001
-1.53489
-1.5173
-1.01035
-1.03505
-1.04634
-1.04028
-0.74514
-0.758816
-0.765746
-0.76468
-0.594029
-0.603553
-0.608797
-0.609657
-0.483845
-0.491418
-0.496423
-0.498891
-0.400404
-0.40738
-0.412785
-0.416562
-0.336021
-0.34255
-0.348038
-0.352517
-0.284378
-0.290508
-0.295925
-0.300672
-0.241903
-0.247685
-0.252942
-0.257711
-0.206263
-0.211692
-0.216714
-0.221367
-0.175791
-0.180852
-0.185598
-0.190061
-0.149303
-0.153969
-0.158395
-0.162601
-0.125913
-0.130141
-0.134188
-0.138069
-0.10496
-0.108704
-0.112308
-0.115784
-0.0860117
-0.0892295
-0.0923397
-0.0953538
-0.0688736
-0.0715485
-0.0741395
-0.0766611
-0.0535259
-0.0556723
-0.0577584
-0.0598018
-0.0400155
-0.0416832
-0.0433125
-0.044922
-0.0283291
-0.0295673
-0.0307892
-0.032016
-0.0183422
-0.0191969
-0.0200604
-0.0209547
-0.00984028
-0.010335
-0.0108491
-0.0114016
-0.00274231
-0.00290739
-0.00308905
-0.00329269
767.026
721.945
635.1
409.491
611.341
972.844
785.554
376.79
368.978
367.289
367.168
722.83
752.12
773.951
476.828
204.169
228.783
260.6
321.655
792.518
676.58
154.861
158.242
526.761
895.658
802.837
371.271
369.907
370.153
372.912
862.141
779.541
664.836
221.665
200.274
205.128
259.54
215.161
186.023
155.473
73.0927
241.817
714.587
945.937
873.357
372.843
369.534
370.088
523.08
910.135
818.573
320.24
206.505
199.968
204.726
227.719
300.381
63.1174
62.3101
63.8398
83.7233
598.444
1029.13
958.219
377.512
365.317
402.677
980.638
963.44
556.557
213.157
207.686
204.012
211.889
227.786
562.571
61.8305
62.7082
63.4406
64.5787
331.66
1007.93
1035.43
564.542
354.06
837.919
1127.04
996.786
335.307
213.512
207.989
210.031
227.864
248.988
686.806
61.3188
62.4337
63.5769
64.1884
87.2761
603.622
1118.21
1129.54
692.04
1220.32
1144.75
763.533
324.56
204.705
209.34
230.491
247.163
268.681
770.271
61.5669
62.4383
63.7144
64.4423
69.0562
440.229
1193.06
1263.03
1285.96
1082.34
286.493
242.189
663.986
581.069
608.644
754.446
779.724
618.425
1090.73
62.109
63.0451
63.7093
65.4008
252.163
1101.24
1282.51
1322.57
1278.67
464.516
25.302
37.0745
627.415
1000.17
1085.98
1174.74
1329.93
1442.7
1436.05
68.0755
100.48
248.546
752.818
1095.33
1199.4
1253.81
1134.89
894.716
206.04
11.035
3.77673
2.80633
148.106
192.91
178.184
431.852
1101.73
1583.32
421.112
645.595
713.556
726.432
482.585
425.083
440.375
401.867
315.252
135.071
5.27847
3.1113
2.50909
2.01264
2.02964
2.64037
4.99051
92.951
1352.91
845.323
425.267
413.299
378.85
365.786
388.675
404.874
445.092
371.156
106.585
3.52095
2.50961
1.89016
1.67167
1.66677
1.75821
2.39988
5.86542
153.948
839.289
865.632
877.559
875.33
691.504
672.33
639.686
570.956
153.028
21.4643
0.206218
1.66732
1.2461
1.22239
1.26675
1.36988
1.80361
3.87412
5.09636
197.673
686.372
805.235
723.338
591.087
405.16
112.42
-2.70515
-2.35537
-3.90353
-0.56485
0.67022
0.679116
0.783701
0.920933
1.08234
1.41788
5.24768
3.67322
-2.05641
-1.59676
-0.93645
-1.42631
-1.99448
-1.92148
-2.23942
-2.77769
-3.39222
-2.60176
-1.06789
-0.318094
0.118007
0.329376
0.593767
0.791576
0.986043
9.33212
3.11592
-2.21341
-1.7255
-1.29309
-1.34011
-1.43161
-1.53541
-1.85759
-2.2076
-2.5439
-2.28559
-1.60931
-1.0099
-0.389043
-0.0772043
0.192553
0.259582
0.25326
10.7076
7.20616
-2.58653
-1.9557
-1.28319
-0.926447
-0.683668
-0.677562
-1.0046
-1.48342
-2.01673
-2.24421
-1.92547
-1.31426
-0.705707
-0.35834
-0.132724
-0.166854
-0.134273
3.13735
673.045
-2.32851
-1.12804
-1.21123
-0.671972
-0.351481
-0.314042
-0.574337
-1.07087
-1.69654
-2.04529
-1.88058
-1.33606
-0.809551
-0.479884
-0.276449
-0.235747
0.0917178
-0.744359
1606.08
2.2044
2.85102
-1.14163
-0.537181
-0.26508
-0.185807
-0.392425
-0.863811
-1.39054
-1.67021
-1.55673
-1.1667
-0.78849
-0.530331
-0.363403
-0.273934
0.16207
0.2641
1321.23
5.42153
3.09302
-1.04289
-0.508425
-0.304451
-0.307766
-0.441236
-0.717506
-1.03534
-1.22848
-1.18348
-0.973237
-0.753661
-0.596075
-0.554117
0.0270942
6.135
1.51047
139.556
1.45783
-1.30973
-0.935809
-0.537302
-0.386032
-0.391191
-0.487608
-0.648906
-0.828913
-0.948568
-0.952766
-0.862105
-0.75122
-0.67566
-0.726909
1.3007
11.9674
-0.18622
-1.67106
-1.44
-1.15728
-0.804479
-0.550372
-0.450677
-0.454527
-0.516318
-0.61496
-0.72667
-0.812171
-0.837799
-0.806766
-0.76164
-0.744027
-0.83919
2.69739
12.4962
-1.24991
-1.73249
-1.00658
-0.873617
-0.689026
-0.547119
-0.484853
-0.485333
-0.525068
-0.589484
-0.664883
-0.730299
-0.766503
-0.77191
-0.772272
-0.800011
-0.934616
3.59663
12.9342
-1.60928
-1.68142
-0.751079
-0.693345
-0.604793
-0.528062
-0.490315
-0.490572
-0.517898
-0.563127
-0.618614
-0.673732
-0.717309
-0.74637
-0.778035
-0.840341
-1.0032
3.87617
13.0317
-1.80762
-1.61228
-0.604369
-0.577656
-0.534307
-0.494164
-0.473786
-0.476216
-0.497108
-0.531889
-0.577212
-0.627855
-0.676797
-0.720862
-0.77172
-0.85496
-1.01815
4.16116
4.91419
-1.85888
40.4267
-0.499373
-0.489915
-0.471283
-0.452905
-0.444219
-0.449001
-0.466442
-0.495418
-0.535772
-0.585057
-0.638009
-0.690842
-0.749146
-0.83485
-0.960748
3.82093
-1.55902
-1.57016
86.5812
-0.420504
-0.420498
-0.414859
-0.408609
-0.407191
-0.413653
-0.428835
-0.454403
-0.49279
-0.542495
-0.598221
-0.654275
-0.709306
-0.778134
-0.84617
0.999222
-0.931322
-1.0843
13.1412
-0.358743
-0.363395
-0.364589
-0.364927
-0.367498
-0.374426
-0.387421
-0.410713
-0.448455
-0.498595
-0.55503
-0.609376
-0.652354
-0.691775
-0.696979
-0.54159
-0.636272
-0.597875
-0.36803
-0.307834
-0.315239
-0.320083
-0.323888
-0.32841
-0.334943
-0.345719
-0.367121
-0.40368
-0.452201
-0.506569
-0.555531
-0.582077
-0.590187
-0.54279
-0.444681
-0.383226
-0.296115
-0.214591
-0.265182
-0.273989
-0.280873
-0.286694
-0.292351
-0.298451
-0.307449
-0.326474
-0.359472
-0.402641
-0.45081
-0.490879
-0.500952
-0.48338
-0.390919
-0.25731
-0.175368
-0.120452
-0.077256
-0.228827
-0.238276
-0.246375
-0.253641
-0.260432
-0.266942
-0.275167
-0.289322
-0.31669
-0.349842
-0.384409
-0.411428
-0.410187
-0.383783
-0.286973
-0.15558
-0.0804667
-0.0371666
0.0012945
-0.19732
-0.206935
-0.215711
-0.224037
-0.232066
-0.239889
-0.248183
-0.258611
-0.27695
-0.29788
-0.303201
-0.314639
-0.305847
-0.297292
-0.207627
-0.114389
-0.0518085
-0.00734986
0.0306613
-0.169494
-0.178888
-0.187819
-0.196606
-0.205395
-0.214372
-0.223614
-0.231578
-0.242649
-0.253572
-0.245594
-0.247802
-0.23372
-0.212813
-0.159199
-0.100718
-0.043482
-0.00061547
0.0348545
-0.144451
-0.153265
-0.161818
-0.170291
-0.178814
-0.187651
-0.197022
-0.205577
-0.211854
-0.217252
-0.219449
-0.209574
-0.189429
-0.166767
-0.13231
-0.0892055
-0.0383771
-0.00375397
0.0283357
-0.121509
-0.12948
-0.137262
-0.144898
-0.152416
-0.160006
-0.168003
-0.176018
-0.182623
-0.186386
-0.189654
-0.186211
-0.174057
-0.152497
-0.116881
-0.0772997
-0.0375847
-0.0126163
0.018838
-0.100326
-0.107285
-0.1141
-0.120749
-0.127194
-0.133496
-0.140005
-0.146681
-0.152791
-0.157393
-0.158656
-0.156042
-0.146152
-0.128909
-0.101999
-0.0735685
-0.0444427
-0.0258976
0.381229
-0.0808433
-0.0867577
-0.0926197
-0.0984062
-0.104084
-0.109675
-0.115504
-0.12149
-0.126967
-0.131374
-0.13381
-0.13279
-0.125896
-0.114115
-0.0950449
-0.0762556
-0.0578313
-0.0442202
2.85445
-0.0632263
-0.0682006
-0.0732599
-0.078421
-0.0836891
-0.0890747
-0.0948843
-0.100885
-0.10641
-0.11109
-0.114507
-0.115441
-0.111856
-0.104899
-0.0925357
-0.081478
-0.0723608
-0.0644665
2.72166
-0.0476647
-0.051834
-0.0562593
-0.061006
-0.0661101
-0.0715656
-0.0775922
-0.0838341
-0.089777
-0.0951546
-0.0996799
-0.102287
-0.10162
-0.0986032
-0.0918614
-0.0865444
-0.0829335
-0.0800736
-0.0958537
-0.0341578
-0.0376341
-0.0415301
-0.045965
-0.0509939
-0.0565953
-0.0628636
-0.069427
-0.0759603
-0.0822348
-0.0879561
-0.0921896
-0.0941945
-0.0943609
-0.0920804
-0.0907951
-0.0898939
-0.0895805
-0.097203
-0.0225745
-0.0253269
-0.0287162
-0.0328798
-0.0378562
-0.0436099
-0.0501356
-0.0571456
-0.0644244
-0.0717112
-0.0786537
-0.0845009
-0.0888479
-0.0917068
-0.0929816
-0.0946616
-0.0956832
-0.0975182
-0.101387
-0.0124457
-0.0144803
-0.0173698
-0.0212662
-0.0261839
-0.0320978
-0.0389672
-0.0465999
-0.0547775
-0.0631609
-0.0713438
-0.0787584
-0.0851611
-0.0904659
-0.0947691
-0.0989778
-0.102038
-0.10543
-0.107565
-0.00369274
-0.00482097
-0.0070935
-0.0106477
-0.0154757
-0.0216165
-0.0289736
-0.0374052
-0.0466417
-0.0562155
-0.0657207
-0.0746462
-0.0829921
-0.090674
-0.0978868
-0.105013
-0.110232
-0.115784
-0.116962
)
;

boundaryField
{
    leftWall
    {
        type            fixedFluxPressure;
        gradient        uniform 0;
        value           nonuniform List<scalar> 
50
(
561.049
560.545
558.131
554.476
550.461
546.542
542.709
538.566
258.741
49.6118
3.05205
2.47462
2.03945
1.67969
1.45886
1.34776
1.24818
1.13261
1.0348
0.954746
0.874122
0.792824
0.71579
0.644913
0.579995
0.520904
0.467337
0.418891
0.375175
0.335794
0.30036
0.26851
0.239894
0.214179
0.191055
0.170235
0.151443
0.134419
0.118923
0.104736
0.0916682
0.0795614
0.068283
0.0577186
0.0477655
0.0383246
0.0293078
0.0206167
0.0122464
0.00376754
)
;
    }
    rightWall
    {
        type            fixedFluxPressure;
        gradient        uniform 0;
        value           nonuniform List<scalar> 
50
(
1212.76
1205.91
1142.7
1032.17
1068.75
1229.29
1077.22
695.39
321.655
215.161
300.381
562.571
686.806
770.271
1090.73
1436.05
1583.32
1352.91
153.948
5.09636
3.67322
3.11592
7.20616
673.045
1606.08
1321.23
139.556
-1.67106
-1.73249
-1.68142
-1.61228
40.4267
86.5812
13.1412
-0.36803
-0.214591
-0.077256
0.0012945
0.0306613
0.0348545
0.0283357
0.018838
0.381229
2.85445
2.72166
-0.0958537
-0.097203
-0.101387
-0.107565
-0.116962
)
;
    }
    lowerWall
    {
        type            fixedFluxPressure;
        gradient        uniform 0;
        value           nonuniform List<scalar> 
62
(
561.049
560.695
562.044
565.627
573.499
588.205
609.789
634.081
657.383
679.831
702.168
724.632
747.061
768.888
789.036
806.65
820.42
825.392
825.612
828.621
840.601
866.735
880.898
880.898
876.312
871.655
868.428
866.307
864.795
865.054
866.785
863.711
858.69
853.167
849.279
824.187
822.923
806.274
782.905
764.049
767.461
788.903
715.185
824.187
725.028
697.057
761.657
862.82
926.708
846.046
827.904
926.445
939.171
847.993
931.971
1472.63
2257.8
2347.58
1689.76
1259.91
1168.04
1212.76
)
;
    }
    atmosphere
    {
        type            totalPressure;
        rho             rho;
        psi             none;
        gamma           1;
        p0              uniform 0;
        value           nonuniform List<scalar> 
46
(
0
0
0
0
0
0
0
0
0
0
0
0
0
0
0
0
0
0
0
0
0
0
0
0
0
0
0
0
-0.000507815
-0.00239616
-0.0057624
-0.0105009
-0.0167968
-0.0243818
-0.0332401
-0.0430637
-0.0532864
-0.0635425
-0.07316
-0.08253
-0.0914297
-0.100277
-0.109645
-0.115671
-0.123836
-0.123442
)
;
    }
    defaultFaces
    {
        type            empty;
    }
}


// ************************************************************************* //
