/*--------------------------------*- C++ -*----------------------------------*\
| =========                 |                                                 |
| \\      /  F ield         | OpenFOAM: The Open Source CFD Toolbox           |
|  \\    /   O peration     | Version:  5.x                                   |
|   \\  /    A nd           | Web:      www.OpenFOAM.org                      |
|    \\/     M anipulation  |                                                 |
\*---------------------------------------------------------------------------*/
FoamFile
{
    version     2.0;
    format      ascii;
    class       surfaceScalarField;
    location    "0.75";
    object      phi;
}
// * * * * * * * * * * * * * * * * * * * * * * * * * * * * * * * * * * * * * //

dimensions      [0 3 -1 0 0 0 0];

internalField   nonuniform List<scalar> 
4432
(
-3.91146e-06
3.91146e-06
-8.19977e-06
4.28831e-06
-1.16934e-05
3.49361e-06
-1.47428e-05
3.04942e-06
-1.70565e-05
2.3137e-06
-1.7375e-05
3.18469e-07
-1.54131e-05
-1.96184e-06
-1.24748e-05
-2.93834e-06
-1.0191e-05
-2.28382e-06
-9.11145e-06
-1.07953e-06
-9.07465e-06
-3.68e-08
-9.81501e-06
7.40356e-07
-1.10801e-05
1.26511e-06
-1.27495e-05
1.66936e-06
-1.46613e-05
1.91178e-06
-1.61036e-05
1.44231e-06
-1.65154e-05
4.11862e-07
-1.86876e-05
2.17216e-06
-2.45177e-05
5.83012e-06
-2.77048e-05
3.18711e-06
-2.36507e-05
-4.05416e-06
-1.23799e-05
-1.12707e-05
-1.23799e-05
-5.42167e-06
9.33312e-06
-9.7614e-06
8.62804e-06
-1.29154e-05
6.64764e-06
-1.57932e-05
5.9272e-06
-1.79285e-05
4.44898e-06
-1.81605e-05
5.50509e-07
-1.61302e-05
-3.99221e-06
-1.2918e-05
-6.15052e-06
-1.03457e-05
-4.85609e-06
-9.07003e-06
-2.35522e-06
-8.75e-06
-3.56833e-07
-9.00029e-06
9.9064e-07
-9.62395e-06
1.88877e-06
-1.05425e-05
2.58788e-06
-1.18754e-05
3.24475e-06
-1.40102e-05
3.5771e-06
-1.75218e-05
3.92343e-06
-2.17671e-05
6.41745e-06
-2.39855e-05
8.04851e-06
-2.22461e-05
1.44774e-06
-1.68278e-05
-9.47243e-06
-8.89603e-06
-1.92025e-05
-2.1276e-05
-4.71099e-06
1.40441e-05
-8.41286e-06
1.23299e-05
-1.1567e-05
9.80181e-06
-1.49057e-05
9.26591e-06
-1.76383e-05
7.18153e-06
-1.8217e-05
1.12924e-06
-1.64418e-05
-5.7674e-06
-1.34919e-05
-9.10047e-06
-1.09735e-05
-7.37448e-06
-9.62456e-06
-3.70417e-06
-9.27452e-06
-7.06875e-07
-9.40459e-06
1.12071e-06
-9.61712e-06
2.1013e-06
-9.63119e-06
2.60194e-06
-9.41569e-06
3.02925e-06
-9.57429e-06
3.7357e-06
-1.08625e-05
5.21167e-06
-1.23323e-05
7.88725e-06
-1.20845e-05
7.80069e-06
-1.04156e-05
-2.21214e-07
-7.3195e-06
-1.25685e-05
-3.38506e-06
-2.3137e-05
-2.4661e-05
-3.34687e-06
1.7391e-05
-6.3718e-06
1.53548e-05
-9.34617e-06
1.27762e-05
-1.23638e-05
1.22835e-05
-1.46104e-05
9.4281e-06
-1.51477e-05
1.66656e-06
-1.41714e-05
-6.74373e-06
-1.26588e-05
-1.0613e-05
-1.13135e-05
-8.71977e-06
-1.03905e-05
-4.62717e-06
-1.01198e-05
-9.77572e-07
-1.03197e-05
1.32065e-06
-1.05857e-05
2.36723e-06
-1.05082e-05
2.52446e-06
-9.78921e-06
2.31026e-06
-8.48463e-06
2.43112e-06
-6.76662e-06
3.49366e-06
-4.33679e-06
5.45742e-06
-1.29655e-06
4.76045e-06
8.78381e-07
-2.39615e-06
1.34583e-06
-1.30359e-05
1.24955e-06
-2.30407e-05
-2.34115e-05
-1.55848e-06
1.89495e-05
-3.39531e-06
1.71917e-05
-5.51788e-06
1.48988e-05
-7.32944e-06
1.40951e-05
-8.23363e-06
1.03323e-05
-8.31584e-06
1.74877e-06
-8.6765e-06
-6.38307e-06
-9.67678e-06
-9.61276e-06
-1.07182e-05
-7.67837e-06
-1.10671e-05
-4.27821e-06
-1.11167e-05
-9.28008e-07
-1.13219e-05
1.5258e-06
-1.15679e-05
2.6133e-06
-1.14906e-05
2.44711e-06
-1.07651e-05
1.58481e-06
-9.22642e-06
8.9241e-07
-6.57484e-06
8.42077e-07
-2.53725e-06
1.41982e-06
2.10399e-06
1.19222e-07
5.12113e-06
-5.41329e-06
4.91587e-06
-1.28307e-05
3.08792e-06
-2.12127e-05
-2.03235e-05
6.69219e-07
1.82802e-05
5.97064e-07
1.72638e-05
-1.26426e-07
1.56222e-05
-5.20016e-07
1.44887e-05
3.00527e-07
9.51175e-06
5.03389e-07
1.5459e-06
-1.54685e-06
-4.33283e-06
-5.57386e-06
-5.58575e-06
-9.31729e-06
-3.93494e-06
-1.14011e-05
-2.19438e-06
-1.21146e-05
-2.14568e-07
-1.24026e-05
1.81382e-06
-1.25687e-05
2.77939e-06
-1.23881e-05
2.26655e-06
-1.15367e-05
7.334e-07
-9.96099e-06
-6.83326e-07
-7.53857e-06
-1.58035e-06
-4.06967e-06
-2.04909e-06
-8.94397e-08
-3.861e-06
3.18857e-06
-8.6913e-06
3.71327e-06
-1.33554e-05
2.72404e-06
-2.02235e-05
-1.75995e-05
2.61185e-06
1.56684e-05
4.56713e-06
1.53085e-05
6.30832e-06
1.38811e-05
8.38522e-06
1.24118e-05
9.7783e-06
8.11866e-06
8.45761e-06
2.86659e-06
3.44387e-06
6.80911e-07
-2.782e-06
6.40118e-07
-8.10155e-06
1.38461e-06
-1.14426e-05
1.14671e-06
-1.29535e-05
1.2963e-06
-1.3502e-05
2.36233e-06
-1.36474e-05
2.92472e-06
-1.3344e-05
1.96322e-06
-1.22393e-05
-3.71318e-07
-1.0417e-05
-2.50559e-06
-7.99505e-06
-4.00234e-06
-5.06378e-06
-4.98036e-06
-1.97664e-06
-6.94815e-06
5.05203e-07
-1.11731e-05
1.58664e-06
-1.44368e-05
1.73352e-06
-2.03704e-05
-1.5866e-05
4.81029e-06
1.08581e-05
9.9616e-06
1.01572e-05
1.3927e-05
9.91564e-06
1.61891e-05
1.01497e-05
1.5042e-05
9.26581e-06
9.69871e-06
8.20986e-06
2.39203e-06
7.98758e-06
-3.94584e-06
6.97799e-06
-8.33457e-06
5.77333e-06
-1.1153e-05
3.96518e-06
-1.29771e-05
3.12031e-06
-1.41051e-05
3.49036e-06
-1.46357e-05
3.45531e-06
-1.45093e-05
1.83685e-06
-1.32304e-05
-1.6502e-06
-1.10622e-05
-4.67378e-06
-8.3309e-06
-6.73368e-06
-5.40286e-06
-7.9084e-06
-2.62096e-06
-9.73004e-06
-5.22344e-07
-1.32718e-05
9.31422e-07
-1.58906e-05
1.55458e-06
-2.09936e-05
-1.43114e-05
-2.05395e-05
2.05395e-05
-4.71382e-05
2.65987e-05
-5.22448e-05
5.10664e-06
-4.06858e-05
-1.1559e-05
-2.16286e-05
-1.90572e-05
5.75032e-06
-2.73789e-05
2.09403e-05
-1.519e-05
1.42601e-05
6.68021e-06
-1.17068e-05
2.59669e-05
-6.00583e-05
4.83515e-05
-0.000107746
4.76873e-05
-0.000135072
2.73262e-05
-0.00013027
-4.80135e-06
-8.41483e-05
-4.61222e-05
-4.57209e-05
-3.84274e-05
-4.40581e-05
-1.6628e-06
-4.05377e-05
-3.52034e-06
-1.9651e-05
-2.08867e-05
-1.9651e-05
-2.87118e-05
4.92514e-05
-4.44458e-05
4.23327e-05
-4.03786e-05
1.03945e-06
-2.85391e-05
-2.33985e-05
-1.18507e-05
-3.57456e-05
9.89274e-06
-4.91224e-05
1.62213e-05
-2.15186e-05
-1.30742e-05
3.59757e-05
-7.04147e-05
8.33074e-05
-0.000124419
0.000102356
-0.000158997
8.2265e-05
-0.000163518
3.18478e-05
-0.000120449
-4.78706e-05
-3.76468e-05
-0.000128924
-4.2741e-06
-7.18001e-05
-2.74948e-05
2.15579e-05
-4.56402e-05
1.46251e-05
-2.78975e-05
-3.86295e-05
-4.75485e-05
-2.30761e-05
7.23274e-05
-3.18518e-05
5.11084e-05
-2.69517e-05
-3.8607e-06
-1.74481e-05
-3.29021e-05
-6.4465e-06
-4.67472e-05
3.23081e-06
-5.87997e-05
-1.17393e-05
-6.54847e-06
-5.90777e-05
8.33141e-05
-0.000117784
0.000142013
-0.000179607
0.000164179
-0.000219642
0.000122301
-0.000182884
-4.91108e-06
-6.76449e-05
-0.000163109
3.32127e-05
-0.000229782
0.000141163
-0.000179751
0.000201961
-3.924e-05
0.000100439
0.000116147
-1.93286e-05
8.11384e-05
-6.68771e-05
-1.31715e-05
8.5499e-05
-1.66332e-05
5.45701e-05
-1.23034e-05
-8.19052e-06
-5.55081e-06
-3.96547e-05
-4.69043e-06
-4.76076e-05
-1.1423e-05
-5.20671e-05
-4.54081e-05
2.74367e-05
-9.63738e-05
0.00013428
-0.000156217
0.000201857
-0.000204847
0.000212809
-0.000183158
0.000100612
-0.000100935
-8.71344e-05
-6.81422e-07
-0.000263363
3.31851e-05
-0.000263648
6.95491e-05
-0.000216114
0.000133831
-0.000103522
9.05274e-05
0.00015945
-5.08951e-05
0.000222561
-0.000117772
-1.53822e-06
8.70372e-05
2.66929e-06
5.03626e-05
5.46716e-06
-1.09884e-05
8.00791e-06
-4.21955e-05
-3.549e-06
-3.60507e-05
-2.80143e-05
-2.76019e-05
-7.02289e-05
6.96513e-05
-0.000122766
0.000186816
-0.000173051
0.000252142
-0.00017371
0.000213468
-0.000100013
2.69145e-05
-2.86486e-05
-0.000158498
1.82563e-05
-0.000310268
3.45481e-05
-0.00027994
4.70115e-05
-0.000228578
8.27808e-05
-0.000139291
6.48578e-05
0.000177373
-7.81845e-06
0.000295237
-0.000125591
9.36423e-06
7.76729e-05
1.88182e-05
4.09087e-05
2.54681e-05
-1.76384e-05
2.28725e-05
-3.95998e-05
-7.8426e-07
-1.23939e-05
-4.01398e-05
1.17537e-05
-8.53206e-05
0.000114832
-0.000136508
0.000238004
-0.000167263
0.000282896
-0.000131844
0.000178049
-6.35948e-05
-4.13348e-05
-9.59674e-06
-0.000212497
2.09793e-05
-0.000340844
2.84678e-05
-0.000287429
3.43429e-05
-0.000234453
5.58318e-05
-0.00016078
7.15023e-06
0.000226055
-1.80926e-05
0.00032048
-0.000143683
1.37088e-05
6.39642e-05
3.10223e-05
2.35951e-05
4.36296e-05
-3.02456e-05
3.463e-05
-3.06002e-05
1.83127e-06
2.04048e-05
-4.45293e-05
5.81142e-05
-8.79749e-05
0.000158278
-0.000133442
0.000283471
-0.000135861
0.000285315
-8.33416e-05
0.00012553
-3.33125e-05
-9.13638e-05
1.73197e-05
-0.000263129
1.97511e-05
-0.000343275
2.03735e-05
-0.000288051
2.53197e-05
-0.000239399
3.33321e-05
-0.000168792
-2.627e-05
0.000285657
-2.45363e-05
0.000318746
-0.00016822
2.15116e-05
4.24526e-05
4.28982e-05
2.20853e-06
5.08713e-05
-3.82187e-05
3.6286e-05
-1.60149e-05
2.69048e-06
5.40003e-05
-4.02466e-05
0.000101051
-7.09499e-05
0.000188981
-0.000105983
0.000318504
-8.9753e-05
0.000269085
-3.44009e-05
7.01779e-05
-2.07712e-06
-0.000123688
2.67023e-05
-0.000291908
1.71711e-05
-0.000333744
1.22345e-05
-0.000283114
2.4825e-05
-0.00025199
1.33914e-05
-0.000157359
-2.84931e-05
0.000327541
-2.56878e-05
0.000315941
-0.000193907
-6.36719e-07
1.14948e-05
-6.60863e-06
1.61291e-05
-1.191e-05
1.5217e-05
-1.72367e-05
1.54764e-05
-2.28965e-05
1.49256e-05
-2.72263e-05
1.25396e-05
-2.85891e-05
9.35041e-06
-2.81511e-05
6.53996e-06
-2.70012e-05
4.62349e-06
-2.6489e-05
3.45296e-06
-2.726e-05
3.89132e-06
-2.8814e-05
5.04435e-06
-3.03526e-05
4.99391e-06
-3.01796e-05
1.66386e-06
-2.68501e-05
-4.97971e-06
-2.17972e-05
-9.72675e-06
-1.58229e-05
-1.27079e-05
-9.70329e-06
-1.4028e-05
-3.90899e-06
-1.55243e-05
1.09424e-06
-1.8275e-05
5.88771e-06
-2.0684e-05
7.86655e-06
-2.29724e-05
-1.95989e-05
1.3154e-05
-9.76022e-05
0.000109097
-0.000105014
2.35412e-05
-0.000100475
1.06772e-05
-9.67294e-05
1.17313e-05
-9.42465e-05
1.24427e-05
-9.07809e-05
9.07407e-06
-8.46984e-05
3.26792e-06
-7.66905e-05
-1.46791e-06
-6.53794e-05
-6.6877e-06
-5.08936e-05
-1.10328e-05
-3.84068e-05
-8.59548e-06
-3.07758e-05
-2.58665e-06
-2.65499e-05
7.67996e-07
-2.57148e-05
8.28809e-07
-2.52939e-05
-5.40058e-06
-2.22309e-05
-1.27898e-05
-1.70823e-05
-1.78565e-05
-1.11839e-05
-1.99264e-05
-5.12513e-06
-2.15832e-05
1.24746e-06
-2.46476e-05
7.29064e-06
-2.67272e-05
1.0651e-05
-2.63327e-05
-2.27407e-05
1.37928e-05
-8.10451e-05
0.000190142
-0.000142136
8.46324e-05
-0.000200306
6.88466e-05
-0.000240784
5.22092e-05
-0.000265649
3.73075e-05
-0.000287973
3.13987e-05
-0.000303435
1.873e-05
-0.000293304
-1.15988e-05
-0.000253295
-4.66972e-05
-0.000197632
-6.66955e-05
-0.000150571
-5.56568e-05
-0.000126146
-2.7012e-05
-0.000127522
2.14429e-06
-0.000145182
1.84887e-05
-0.000139149
-1.14338e-05
-0.000123841
-2.80977e-05
-0.000105603
-3.6094e-05
-8.6486e-05
-3.90437e-05
-6.80607e-05
-4.00084e-05
-5.23867e-05
-4.03216e-05
-3.8625e-05
-4.04889e-05
-2.92348e-05
-3.57229e-05
-2.24006e-05
-2.95749e-05
-6.32504e-05
0.000253392
-0.000123335
0.000144717
-0.000171327
0.000116839
-0.000201847
8.27289e-05
-0.000226021
6.14818e-05
-0.000254278
5.96558e-05
-0.000295499
5.99516e-05
-0.000356935
4.98364e-05
-0.000425985
2.23528e-05
-0.000472457
-2.02238e-05
-0.000477036
-5.10771e-05
-0.000449525
-5.45234e-05
-0.000420284
-2.70966e-05
-0.00037731
-2.44857e-05
-0.000325786
-6.29578e-05
-0.000282072
-7.18113e-05
-0.000248749
-6.94172e-05
-0.000227891
-5.99014e-05
-0.000232956
-3.49437e-05
-0.000219822
-5.34557e-05
-0.00017283
-8.74807e-05
-0.000110901
-9.76523e-05
-8.70553e-05
-4.62468e-05
-4.03775e-05
0.00029377
-8.60079e-05
0.000190347
-0.000107891
0.000138722
-0.000113983
8.8821e-05
-0.00010881
5.63084e-05
-0.000100956
5.18021e-05
-9.97555e-05
5.87507e-05
-0.00011675
6.68308e-05
-0.000155416
6.10183e-05
-0.000204139
2.85e-05
-0.000242347
-1.28697e-05
-0.000271435
-2.54354e-05
-0.000288658
-9.87382e-06
-0.000294896
-1.82472e-05
-0.000306877
-5.0977e-05
-0.000334199
-4.44894e-05
-0.000375873
-2.77429e-05
-0.000411241
-2.45332e-05
-0.000393293
-5.28922e-05
-0.000335244
-0.000111504
-0.000262127
-0.000160598
-0.000180019
-0.00017976
-0.00018109
-8.59845e-05
-1.19821e-05
0.000305752
-4.4588e-05
0.000222953
-5.14892e-05
0.000145623
-4.80278e-05
8.53597e-05
-4.23545e-05
5.0635e-05
-3.63619e-05
4.58096e-05
-2.9308e-05
5.16967e-05
-2.61216e-05
6.36444e-05
-3.87713e-05
7.36678e-05
-7.42815e-05
6.40099e-05
-0.000129462
4.23111e-05
-0.000188247
3.33494e-05
-0.000236242
3.81208e-05
-0.000281672
2.71824e-05
-0.00032902
-3.62907e-06
-0.000349959
-2.35496e-05
-0.000337864
-3.9838e-05
-0.000309783
-5.26146e-05
-0.000295747
-6.69284e-05
-0.000306384
-0.000100868
-0.000320748
-0.000146234
-0.000314272
-0.000186235
-0.000228068
-0.000267295
2.84297e-05
0.000277322
6.03905e-06
0.000245343
-3.20813e-06
0.00015487
-1.16683e-06
8.33184e-05
-3.13145e-06
5.25997e-05
-8.06433e-06
5.07424e-05
-1.40763e-05
5.77086e-05
-1.60987e-05
6.56668e-05
-1.79161e-05
7.54852e-05
-3.38851e-05
7.99788e-05
-6.89082e-05
7.73342e-05
-0.000113224
7.76655e-05
-0.000158834
8.3731e-05
-0.000212042
8.039e-05
-0.000271614
5.59426e-05
-0.00031379
1.86262e-05
-0.000328367
-2.52613e-05
-0.000301602
-7.93796e-05
-0.000272255
-9.62754e-05
-0.000271763
-0.00010136
-0.000303353
-0.000114643
-0.000338674
-0.000150914
-0.000202722
-0.00036402
5.38601e-05
0.000223462
5.62972e-05
0.000242906
4.63287e-05
0.000164839
3.39978e-05
9.56492e-05
2.24544e-05
6.41432e-05
1.01173e-05
6.30796e-05
-3.40562e-06
7.12316e-05
-1.46309e-05
7.6892e-05
-2.1153e-05
8.20073e-05
-2.99639e-05
8.87896e-05
-4.71921e-05
9.45623e-05
-6.99094e-05
0.000100383
-9.58272e-05
0.000109649
-0.000132727
0.00011729
-0.000190549
0.000113765
-0.000257441
8.55176e-05
-0.000301327
1.86245e-05
-0.000313762
-6.69441e-05
-0.00028209
-0.000127947
-0.00025159
-0.00013186
-0.000244613
-0.00012162
-0.000275204
-0.000120323
-0.000147095
-0.000330831
4.99496e-05
0.000173512
7.5112e-05
0.000217744
7.31144e-05
0.000166836
5.71235e-05
0.00011164
3.74204e-05
8.38464e-05
1.94353e-05
8.10647e-05
3.82924e-06
8.68378e-05
-9.92616e-06
9.06474e-05
-2.03144e-05
9.23955e-05
-2.87102e-05
9.71853e-05
-3.83579e-05
0.00010421
-4.93306e-05
0.000111356
-6.11691e-05
0.000121488
-7.88522e-05
0.000134973
-0.00011128
0.000146192
-0.000163559
0.000137797
-0.000226817
8.18824e-05
-0.000275898
-1.78634e-05
-0.000290116
-0.000113729
-0.000263074
-0.000158902
-0.000232726
-0.000151968
-0.000220748
-0.000132301
-0.000117435
-0.000250408
2.67754e-05
0.000146737
5.92828e-05
0.000185236
6.8134e-05
0.000157985
5.72468e-05
0.000122528
3.85836e-05
0.00010251
2.12992e-05
9.83493e-05
7.48549e-06
0.000100652
-4.53511e-06
0.000102668
-1.49103e-05
0.000102771
-2.30275e-05
0.000105303
-2.96695e-05
0.000110852
-3.58647e-05
0.000117551
-4.13372e-05
0.00012696
-4.71213e-05
0.000140757
-5.71588e-05
0.00015623
-8.12498e-05
0.000161888
-0.000130825
0.000131458
-0.000198771
5.00829e-05
-0.00025519
-5.73103e-05
-0.000276174
-0.000137919
-0.000252119
-0.000176023
-0.000219389
-0.000165031
-0.000133766
-0.000203059
6.54102e-06
0.000140196
3.45041e-05
0.000157273
4.7604e-05
0.000144885
4.3449e-05
0.000126683
3.12989e-05
0.00011466
1.93138e-05
0.000110335
9.54751e-06
0.000110418
8.20038e-07
0.000111396
-7.58413e-06
0.000111175
-1.45798e-05
0.000112298
-1.95743e-05
0.000115847
-2.35209e-05
0.000121498
-2.65031e-05
0.000129942
-2.76504e-05
0.000141905
-2.73064e-05
0.000155886
-3.18754e-05
0.000166456
-5.76979e-05
0.00015728
-0.000115285
0.00010767
-0.000192022
1.94273e-05
-0.000248265
-8.16766e-05
-0.00027237
-0.000151917
-0.000250016
-0.000187386
-0.000174272
-0.000209509
-7.74326e-07
0.00014097
1.80768e-05
0.000138422
2.89372e-05
0.000134025
2.87934e-05
0.000126827
2.31009e-05
0.000120353
1.67376e-05
0.000116698
1.10956e-05
0.00011606
5.74753e-06
0.000116744
-1.28264e-08
0.000116935
-5.32025e-06
0.000117606
-9.2371e-06
0.000119764
-1.20653e-05
0.000124326
-1.39878e-05
0.000131865
-1.4009e-05
0.000141926
-1.10643e-05
0.000152941
-7.18554e-06
0.000162578
-1.42136e-05
0.000164308
-4.94905e-05
0.000142947
-0.000115621
8.55578e-05
-0.000195916
-1.38114e-06
-0.000255944
-9.18887e-05
-0.000284812
-0.000158518
-0.000185982
-0.000273102
-1.13533e-07
0.000141084
1.06331e-05
0.000127675
1.76529e-05
0.000127005
1.91743e-05
0.000125306
1.76005e-05
0.000121927
1.50339e-05
0.000119265
1.2398e-05
0.000118696
9.72867e-06
0.000119413
6.52544e-06
0.000120139
3.14079e-06
0.000120991
2.20416e-07
0.000122684
-1.96992e-06
0.000126516
-3.26429e-06
0.00013316
-3.03931e-06
0.000141701
-4.08999e-07
0.000150311
4.56208e-06
0.000157607
6.33442e-06
0.000162536
-1.06928e-05
0.000159974
-5.73168e-05
0.000132182
-0.000119349
6.06508e-05
-0.000188662
-2.25756e-05
-0.000271191
-7.59883e-05
-0.000132528
-0.000324645
1.61657e-06
0.000139467
7.66681e-06
0.000121625
1.21326e-05
0.00012254
1.42492e-05
0.000123189
1.47117e-05
0.000121464
1.42264e-05
0.00011975
1.34563e-05
0.000119466
1.26046e-05
0.000120265
1.1369e-05
0.000121374
9.74402e-06
0.000122616
7.98116e-06
0.000124447
6.50335e-06
0.000127994
5.86137e-06
0.000133802
6.42125e-06
0.000141141
8.46522e-06
0.000148266
1.21343e-05
0.000153937
1.54397e-05
0.00015923
8.39067e-06
0.000167023
-2.59476e-05
0.00016652
-8.32766e-05
0.00011798
-0.000134153
2.83008e-05
-0.000193355
-1.67862e-05
-4.71625e-05
-0.000278721
2.55962e-06
0.000136907
6.44965e-06
0.000117735
9.70087e-06
0.000119288
1.19826e-05
0.000120907
1.33235e-05
0.000120123
1.39298e-05
0.000119144
1.42632e-05
0.000119133
1.45563e-05
0.000119972
1.46482e-05
0.000121283
1.43907e-05
0.000122873
1.38005e-05
0.000125038
1.33115e-05
0.000128483
1.35138e-05
0.000133599
1.47087e-05
0.000139946
1.6689e-05
0.000146286
1.91757e-05
0.000151451
2.16293e-05
0.000156776
1.97056e-05
0.000168947
-1.56827e-06
0.000187794
-5.14671e-05
0.000167879
-9.69643e-05
7.37981e-05
-0.00013932
2.55694e-05
3.61976e-05
-0.00022268
2.8495e-06
0.000134058
5.84593e-06
0.000114739
8.62436e-06
0.00011651
1.09411e-05
0.000118591
1.26849e-05
0.00011838
1.39192e-05
0.00011791
1.49398e-05
0.000118113
1.5947e-05
0.000118965
1.68987e-05
0.000120331
1.76533e-05
0.000122119
1.81867e-05
0.000124504
1.88045e-05
0.000127865
1.99861e-05
0.000132417
2.19639e-05
0.000137968
2.44322e-05
0.000143818
2.68117e-05
0.000149071
2.88536e-05
0.000154734
2.98808e-05
0.000167919
2.08342e-05
0.000196841
-1.93134e-05
0.000208026
-6.54506e-05
0.000119935
-8.87665e-05
4.88853e-05
7.24195e-05
-0.000124988
2.95822e-06
0.000131099
5.54183e-06
0.000112155
8.13751e-06
0.000113914
1.04825e-05
0.000116246
1.24772e-05
0.000116385
1.4141e-05
0.000116246
1.56524e-05
0.000116601
1.71635e-05
0.000117454
1.87034e-05
0.000118791
2.02124e-05
0.00012061
2.17022e-05
0.000123014
2.33876e-05
0.00012618
2.55893e-05
0.000130216
2.84787e-05
0.000135079
3.18091e-05
0.000140487
3.49567e-05
0.000145923
3.77153e-05
0.000151975
4.12837e-05
0.000164351
4.34936e-05
0.000194631
2.2344e-05
0.000229176
-3.42423e-05
0.000176522
-6.59762e-05
8.06193e-05
6.30458e-05
-5.66024e-05
3.03633e-06
0.000128063
5.44004e-06
0.000109751
7.96149e-06
0.000111393
1.03541e-05
0.000113853
1.25523e-05
0.000114187
1.45535e-05
0.000114245
1.64644e-05
0.00011469
1.83933e-05
0.000115525
2.04032e-05
0.000116781
2.25204e-05
0.000118493
2.48043e-05
0.00012073
2.74119e-05
0.000123572
3.05553e-05
0.000127072
3.43783e-05
0.000131256
3.877e-05
0.000136095
4.33105e-05
0.000141382
4.79202e-05
0.000147366
5.46862e-05
0.000157585
6.74122e-05
0.000181905
7.53554e-05
0.000221233
3.51836e-05
0.000216693
-1.96701e-05
0.000135473
7.60722e-05
-3.26964e-05
3.08913e-06
0.000124974
5.44982e-06
0.000107391
7.96026e-06
0.000108883
1.04223e-05
0.000111391
1.27967e-05
0.000111813
1.50766e-05
0.000111965
1.73319e-05
0.000112435
1.96387e-05
0.000113218
2.20762e-05
0.000114344
2.47164e-05
0.000115852
2.76514e-05
0.000117795
3.10168e-05
0.000120207
3.49682e-05
0.000123121
3.965e-05
0.000126574
4.51281e-05
0.000130617
5.12937e-05
0.000135217
5.82566e-05
0.000140403
6.81091e-05
0.000147732
8.68357e-05
0.000163179
0.000115523
0.000192546
0.000118448
0.000213768
7.89577e-05
0.000174964
0.000108924
4.61063e-05
3.11341e-06
0.000121861
5.4957e-06
0.000105008
8.03734e-06
0.000106341
1.05836e-05
0.000108845
1.31122e-05
0.000109284
1.56237e-05
0.000109454
1.81714e-05
0.000109888
2.08179e-05
0.000110572
2.364e-05
0.000111522
2.67271e-05
0.000112765
3.01851e-05
0.000114337
3.41391e-05
0.000116253
3.87324e-05
0.000118527
4.41261e-05
0.00012118
5.04991e-05
0.000124244
5.80064e-05
0.000127709
6.68988e-05
0.00013151
7.86667e-05
0.000135965
9.83466e-05
0.000143498
0.000132882
0.000158011
0.000170216
0.000176433
0.000179009
0.000166171
0.000123658
0.000164275
3.12001e-06
0.000118741
5.53896e-06
0.00010259
8.13157e-06
0.000103748
1.07663e-05
0.00010621
1.34256e-05
0.000106625
1.61215e-05
0.000106758
1.89045e-05
0.000107105
2.18288e-05
0.000107648
2.49689e-05
0.000108382
2.84117e-05
0.000109322
3.22618e-05
0.000110487
3.66399e-05
0.000111875
4.16845e-05
0.000113483
4.75652e-05
0.000115299
5.44975e-05
0.000117311
6.27434e-05
0.000119463
7.26178e-05
0.000121636
8.49395e-05
0.000123643
0.000102576
0.000125862
0.00013144
0.000129147
0.000173066
0.000134807
0.000208865
0.000130371
0.000102348
0.000230175
3.11755e-06
0.000115623
5.56606e-06
0.000100141
8.20964e-06
0.000101105
1.09236e-05
0.000103496
1.36874e-05
0.000103861
1.6523e-05
0.000103922
1.94788e-05
0.000104149
2.26083e-05
0.000104518
2.59792e-05
0.000105011
2.96721e-05
0.00010563
3.37835e-05
0.000106376
3.84226e-05
0.000107235
4.37207e-05
0.000108185
4.98344e-05
0.000109185
5.6964e-05
0.000110182
6.53568e-05
0.00011107
7.53044e-05
0.000111688
8.72051e-05
0.000111742
0.000102168
0.000110899
0.00012275
0.000108565
0.000152585
0.000104973
0.000185777
9.7179e-05
7.6553e-05
0.000211573
3.10604e-06
0.000112517
5.5719e-06
9.76753e-05
8.25293e-06
9.84239e-05
1.10273e-05
0.000100722
1.38651e-05
0.000101024
1.67966e-05
0.000100991
1.98671e-05
0.000101079
2.31275e-05
0.000101257
2.66409e-05
0.000101497
3.04786e-05
0.000101792
3.47258e-05
0.000102129
3.9478e-05
0.000102483
4.48487e-05
0.000102814
5.09696e-05
0.000103064
5.80018e-05
0.000103149
6.61298e-05
0.000102942
7.55666e-05
0.000102251
8.65152e-05
0.000100793
9.9263e-05
9.81509e-05
0.000114238
9.35908e-05
0.000132794
8.64166e-05
0.000153893
7.60794e-05
5.88755e-05
0.000171571
3.08212e-06
0.000109435
5.55246e-06
9.5205e-05
8.2503e-06
9.57263e-05
1.10591e-05
9.79135e-05
1.394e-05
9.81427e-05
1.69251e-05
9.80059e-05
2.00567e-05
9.79469e-05
2.3383e-05
9.7931e-05
2.6959e-05
9.79213e-05
3.08483e-05
9.79026e-05
3.51232e-05
9.78539e-05
3.98635e-05
9.77428e-05
4.51604e-05
9.75168e-05
5.11159e-05
9.71082e-05
5.7846e-05
9.6419e-05
6.54715e-05
9.53163e-05
7.41149e-05
9.36079e-05
8.38725e-05
9.10359e-05
9.47753e-05
8.72481e-05
0.00010664
8.17265e-05
0.000119291
7.37655e-05
0.000132254
6.31163e-05
4.82585e-05
0.000142871
3.04344e-06
0.000106392
5.50453e-06
9.27439e-05
8.19513e-06
9.30358e-05
1.10107e-05
9.5098e-05
1.39025e-05
9.5251e-05
1.69018e-05
9.50066e-05
2.00476e-05
9.48008e-05
2.33826e-05
9.45959e-05
2.69554e-05
9.43485e-05
3.08197e-05
9.40384e-05
3.50349e-05
9.36389e-05
3.96651e-05
9.31127e-05
4.47789e-05
9.2403e-05
5.04494e-05
9.14376e-05
5.67508e-05
9.01174e-05
6.37517e-05
8.83154e-05
7.15004e-05
8.58592e-05
8.00105e-05
8.25259e-05
8.92194e-05
7.80394e-05
9.88859e-05
7.206e-05
0.000108503
6.41482e-05
0.000117455
5.41642e-05
4.14045e-05
0.000124309
2.98955e-06
0.000103402
5.42655e-06
9.03069e-05
8.08677e-06
9.03755e-05
1.088e-05
9.23048e-05
1.37519e-05
9.2379e-05
1.67285e-05
9.20299e-05
1.98465e-05
9.16826e-05
2.31423e-05
9.13e-05
2.66575e-05
9.08334e-05
3.04357e-05
9.02603e-05
3.45244e-05
8.95502e-05
3.89723e-05
8.86647e-05
4.38278e-05
8.75475e-05
4.91384e-05
8.6127e-05
5.49445e-05
8.43112e-05
6.12742e-05
8.19856e-05
6.81267e-05
7.90067e-05
7.54573e-05
7.51953e-05
8.31516e-05
7.03453e-05
9.09795e-05
6.42321e-05
9.85119e-05
5.66158e-05
0.000105216
4.746e-05
3.6407e-05
0.000110214
2.92146e-06
0.000100481
5.31937e-06
8.79088e-05
7.92757e-06
8.77672e-05
1.06712e-05
8.95611e-05
1.34936e-05
8.95566e-05
1.64149e-05
8.91085e-05
1.94677e-05
8.86297e-05
2.26838e-05
8.80839e-05
2.6097e-05
8.74203e-05
2.97421e-05
8.66154e-05
3.36548e-05
8.56376e-05
3.78706e-05
8.44491e-05
4.24208e-05
8.29973e-05
4.7332e-05
8.12159e-05
5.262e-05
7.90233e-05
5.8284e-05
7.63214e-05
6.42948e-05
7.29959e-05
7.05787e-05
6.89114e-05
7.70031e-05
6.39208e-05
8.33568e-05
5.78784e-05
8.93175e-05
5.06552e-05
9.45025e-05
4.22751e-05
3.25637e-05
9.83456e-05
2.84137e-06
9.76391e-05
5.18513e-06
8.55648e-05
7.72272e-06
8.52294e-05
1.0392e-05
8.68917e-05
1.31382e-05
8.68104e-05
1.59755e-05
8.62712e-05
1.89317e-05
8.56735e-05
2.20345e-05
8.49811e-05
2.53101e-05
8.41448e-05
2.8786e-05
8.31395e-05
3.24878e-05
8.19359e-05
3.64393e-05
8.04977e-05
4.06589e-05
7.87778e-05
4.51572e-05
7.67177e-05
4.99329e-05
7.42474e-05
5.49675e-05
7.12868e-05
6.02168e-05
6.77465e-05
6.55993e-05
6.3529e-05
7.09866e-05
5.85336e-05
7.61957e-05
5.26694e-05
8.09803e-05
4.58708e-05
8.50678e-05
3.81876e-05
2.95472e-05
8.80841e-05
2.75352e-06
9.48854e-05
5.02602e-06
8.32922e-05
7.47766e-06
8.27777e-05
1.00516e-05
8.43178e-05
1.2699e-05
8.4163e-05
1.54282e-05
8.35421e-05
1.82621e-05
8.28395e-05
2.12246e-05
8.20188e-05
2.43354e-05
8.1034e-05
2.76154e-05
7.98596e-05
3.10823e-05
7.84691e-05
3.47507e-05
7.68294e-05
3.86292e-05
7.48994e-05
4.27172e-05
7.26296e-05
4.70026e-05
6.99619e-05
5.1457e-05
6.68322e-05
5.60306e-05
6.31729e-05
6.06437e-05
5.89159e-05
6.51816e-05
5.39957e-05
6.94928e-05
4.83584e-05
7.33892e-05
4.19745e-05
7.66763e-05
3.49006e-05
2.71194e-05
7.9104e-05
2.66493e-06
9.22204e-05
4.84415e-06
8.11129e-05
7.19632e-06
8.04255e-05
9.65826e-06
8.18559e-05
1.21892e-05
8.16322e-05
1.47909e-05
8.09403e-05
1.74831e-05
8.01472e-05
2.02848e-05
7.92171e-05
2.32111e-05
7.81076e-05
2.6277e-05
7.67937e-05
2.94941e-05
7.5252e-05
3.28702e-05
7.34534e-05
3.64066e-05
7.1363e-05
4.00964e-05
6.89398e-05
4.39209e-05
6.61373e-05
4.78475e-05
6.29055e-05
5.18258e-05
5.91947e-05
5.5783e-05
5.49588e-05
5.96212e-05
5.01576e-05
6.32177e-05
4.4762e-05
6.64305e-05
3.87618e-05
6.91201e-05
3.22108e-05
2.51243e-05
7.11153e-05
2.58476e-06
8.96356e-05
4.64204e-06
7.90557e-05
6.8806e-06
7.81871e-05
9.21852e-06
7.9518e-05
1.16201e-05
7.92306e-05
1.40802e-05
7.84802e-05
1.66165e-05
7.76109e-05
1.92438e-05
7.65898e-05
2.19731e-05
7.53782e-05
2.48147e-05
7.3952e-05
2.77755e-05
7.22912e-05
3.08585e-05
7.03705e-05
3.40603e-05
6.81613e-05
3.73701e-05
6.56301e-05
4.07665e-05
6.27408e-05
4.42164e-05
5.94557e-05
4.76721e-05
5.5739e-05
5.10701e-05
5.15608e-05
5.4329e-05
4.68987e-05
5.73508e-05
4.17401e-05
6.00274e-05
3.60852e-05
6.22578e-05
2.99805e-05
2.3458e-05
6.39241e-05
2.52073e-06
8.71149e-05
4.42484e-06
7.71517e-05
6.53158e-06
7.60804e-05
8.73657e-06
7.73131e-05
1.09994e-05
7.69677e-05
1.33079e-05
7.61716e-05
1.56793e-05
7.52395e-05
1.81242e-05
7.41448e-05
2.06508e-05
7.28514e-05
2.32656e-05
7.1337e-05
2.59721e-05
6.95846e-05
2.87694e-05
6.75733e-05
3.16516e-05
6.52791e-05
3.46057e-05
6.26761e-05
3.76102e-05
5.97363e-05
4.06336e-05
5.64323e-05
4.36335e-05
5.27391e-05
4.65559e-05
4.86383e-05
4.93349e-05
4.41197e-05
5.18933e-05
3.91817e-05
5.41484e-05
3.38301e-05
5.60268e-05
2.81021e-05
2.20348e-05
5.74502e-05
2.47344e-06
8.46416e-05
4.20065e-06
7.54246e-05
6.15242e-06
7.41288e-05
8.21544e-06
7.52501e-05
1.03306e-05
7.48525e-05
1.24798e-05
7.40223e-05
1.46799e-05
7.30393e-05
1.69384e-05
7.1886e-05
1.92616e-05
7.0528e-05
2.16531e-05
6.89455e-05
2.41134e-05
6.71242e-05
2.66392e-05
6.50475e-05
2.92228e-05
6.26956e-05
3.18506e-05
6.00482e-05
3.45025e-05
5.70844e-05
3.715e-05
5.37848e-05
3.97566e-05
5.01324e-05
4.22781e-05
4.61167e-05
4.46627e-05
4.17351e-05
4.68515e-05
3.69929e-05
4.87826e-05
3.18989e-05
5.04035e-05
2.6481e-05
2.07718e-05
5.16664e-05
2.43455e-06
8.2207e-05
3.97506e-06
7.38842e-05
5.74717e-06
7.23568e-05
7.65558e-06
7.33417e-05
9.61213e-06
7.28959e-05
1.15936e-05
7.20408e-05
1.3616e-05
7.10168e-05
1.56851e-05
6.98169e-05
1.78053e-05
6.84077e-05
1.99783e-05
6.67723e-05
2.22022e-05
6.49003e-05
2.44721e-05
6.27775e-05
2.67795e-05
6.03881e-05
2.9111e-05
5.77165e-05
3.14482e-05
5.47472e-05
3.37665e-05
5.14664e-05
3.60357e-05
4.78633e-05
3.82206e-05
4.39319e-05
4.0282e-05
3.96737e-05
4.21776e-05
3.50972e-05
4.38638e-05
3.02126e-05
4.53056e-05
2.50391e-05
1.95993e-05
4.6478e-05
2.39173e-06
7.98154e-05
3.74611e-06
7.253e-05
5.31609e-06
7.07869e-05
7.05278e-06
7.16051e-05
8.83688e-06
7.11118e-05
1.06393e-05
7.02384e-05
1.24749e-05
6.91812e-05
1.4348e-05
6.79436e-05
1.62625e-05
6.64931e-05
1.82178e-05
6.48168e-05
2.02105e-05
6.29074e-05
2.22348e-05
6.0753e-05
2.42818e-05
5.83411e-05
2.63389e-05
5.56593e-05
2.83897e-05
5.26964e-05
3.04134e-05
4.94427e-05
3.23855e-05
4.58912e-05
3.42788e-05
4.20386e-05
3.60651e-05
3.78873e-05
3.77157e-05
3.34464e-05
3.92034e-05
2.87247e-05
4.05068e-05
2.37356e-05
1.84902e-05
4.16158e-05
2.3333e-06
7.74822e-05
3.50652e-06
7.13569e-05
4.85529e-06
6.94383e-05
6.40046e-06
7.00601e-05
7.99497e-06
6.95174e-05
9.60299e-06
6.86305e-05
1.12384e-05
6.75457e-05
1.29047e-05
6.62772e-05
1.46045e-05
6.47929e-05
1.63357e-05
6.30855e-05
1.80937e-05
6.11493e-05
1.98722e-05
5.89745e-05
2.16624e-05
5.65508e-05
2.34526e-05
5.38691e-05
2.52282e-05
5.09208e-05
2.69722e-05
4.76988e-05
2.86645e-05
4.4199e-05
3.02844e-05
4.04187e-05
3.18121e-05
3.63596e-05
3.32292e-05
3.20293e-05
3.452e-05
2.7434e-05
3.56719e-05
2.25838e-05
1.74822e-05
3.668e-05
2.24673e-06
7.52356e-05
3.24827e-06
7.03556e-05
4.36132e-06
6.83254e-05
5.69552e-06
6.87261e-05
7.08061e-06
6.81325e-05
8.47708e-06
6.7234e-05
9.89679e-06
6.61259e-05
1.13417e-05
6.48323e-05
1.28137e-05
6.33208e-05
1.43082e-05
6.1591e-05
1.58207e-05
5.96368e-05
1.73441e-05
5.7451e-05
1.88701e-05
5.50247e-05
2.03879e-05
5.23514e-05
2.18845e-05
4.94243e-05
2.3346e-05
4.62375e-05
2.47557e-05
4.27896e-05
2.60979e-05
3.90767e-05
2.73576e-05
3.50998e-05
2.8523e-05
3.08639e-05
2.95833e-05
2.63737e-05
3.05311e-05
2.16359e-05
1.66526e-05
3.13607e-05
2.12139e-06
7.31143e-05
2.963e-06
6.95141e-05
3.83372e-06
6.74548e-05
4.94247e-06
6.76174e-05
6.09971e-06
6.69753e-05
7.27018e-06
6.60636e-05
8.46031e-06
6.49358e-05
9.67093e-06
6.36216e-05
1.09022e-05
6.20894e-05
1.21476e-05
6.03456e-05
1.34029e-05
5.83814e-05
1.46608e-05
5.6193e-05
1.59127e-05
5.37727e-05
1.71499e-05
5.11142e-05
1.83602e-05
4.82141e-05