/*--------------------------------*- C++ -*----------------------------------*\
| =========                 |                                                 |
| \\      /  F ield         | OpenFOAM: The Open Source CFD Toolbox           |
|  \\    /   O peration     | Version:  5.x                                   |
|   \\  /    A nd           | Web:      www.OpenFOAM.org                      |
|    \\/     M anipulation  |                                                 |
\*---------------------------------------------------------------------------*/
FoamFile
{
    version     2.0;
    format      ascii;
    class       volVectorField;
    location    "0.75";
    object      U;
}
// * * * * * * * * * * * * * * * * * * * * * * * * * * * * * * * * * * * * * //

dimensions      [0 1 -1 0 0 0 0];

internalField   nonuniform List<vector> 
2268
(
(-0.0213039 0.00980776 0)
(-0.0716453 0.0123729 0)
(-0.117267 0.00996585 0)
(-0.153733 0.00830313 0)
(-0.18668 0.00618907 0)
(-0.201801 0.000968196 0)
(-0.188248 -0.00480476 0)
(-0.157623 -0.00728125 0)
(-0.126729 -0.00574818 0)
(-0.107467 -0.00259392 0)
(-0.10105 0.000601592 0)
(-0.105631 0.00305267 0)
(-0.117772 0.00474709 0)
(-0.134162 0.00620903 0)
(-0.155279 0.00652528 0)
(-0.178121 0.00186992 0)
(-0.185083 -0.00573346 0)
(-0.187391 0.00235977 0)
(-0.245401 0.0216606 0)
(-0.327195 0.0155154 0)
(-0.315021 -0.0107355 0)
(-0.20162 -0.0396473 0)
(-0.0703438 -0.0405772 0)
(-0.0363204 0.0351697 0)
(-0.0920058 0.03494 0)
(-0.131551 0.0271773 0)
(-0.166693 0.0237215 0)
(-0.198602 0.0177411 0)
(-0.210022 0.00223238 0)
(-0.197617 -0.015755 0)
(-0.16463 -0.0242676 0)
(-0.129953 -0.0191504 0)
(-0.1079 -0.00928978 0)
(-0.0997048 -0.000979487 0)
(-0.099777 0.00499945 0)
(-0.105104 0.00911776 0)
(-0.113648 0.0124547 0)
(-0.125674 0.0153407 0)
(-0.145161 0.0149344 0)
(-0.173211 0.0117572 0)
(-0.217899 0.0239616 0)
(-0.277199 0.0390531 0)
(-0.29137 0.0130542 0)
(-0.224734 -0.0406218 0)
(-0.141497 -0.0946994 0)
(-0.0487922 -0.102142 0)
(-0.0347733 0.0630504 0)
(-0.0774165 0.0563266 0)
(-0.113426 0.0440661 0)
(-0.15349 0.0405823 0)
(-0.192879 0.0307308 0)
(-0.210042 0.00392417 0)
(-0.198545 -0.0281649 0)
(-0.169918 -0.0433196 0)
(-0.138002 -0.0342774 0)
(-0.114811 -0.0167832 0)
(-0.105692 -0.00310226 0)
(-0.105668 0.00542471 0)
(-0.108507 0.0106718 0)
(-0.110222 0.0143504 0)
(-0.108477 0.0180695 0)
(-0.106115 0.022146 0)
(-0.111565 0.0283448 0)
(-0.127958 0.0416741 0)
(-0.150519 0.0435471 0)
(-0.14458 -7.60992e-05 0)
(-0.0996283 -0.0654571 0)
(-0.0561274 -0.120519 0)
(-0.01168 -0.13288 0)
(-0.0262781 0.0855437 0)
(-0.0544403 0.074769 0)
(-0.0886018 0.0605618 0)
(-0.127032 0.0579816 0)
(-0.162571 0.0441398 0)
(-0.173659 0.00648046 0)
(-0.163805 -0.0375084 0)
(-0.151369 -0.0572379 0)
(-0.137947 -0.0462072 0)
(-0.123315 -0.023683 0)
(-0.115174 -0.00481576 0)
(-0.115536 0.00645085 0)
(-0.119433 0.0119422 0)
(-0.12145 0.0138269 0)
(-0.117305 0.0146857 0)
(-0.105246 0.0177421 0)
(-0.0868369 0.0262637 0)
(-0.0620106 0.0404671 0)
(-0.0350331 0.0397602 0)
(-0.00108427 -0.0023364 0)
(0.0211753 -0.0653006 0)
(0.0132637 -0.123007 0)
(0.021069 -0.131405 0)
(-0.0144159 0.101029 0)
(-0.0245665 0.089307 0)
(-0.0505183 0.0767493 0)
(-0.0769968 0.0733943 0)
(-0.0975647 0.0553194 0)
(-0.0940866 0.0108659 0)
(-0.0879806 -0.0377412 0)
(-0.101644 -0.0574307 0)
(-0.120612 -0.0468425 0)
(-0.12777 -0.0256609 0)
(-0.126588 -0.00582229 0)
(-0.1272 0.00780558 0)
(-0.130764 0.0138133 0)
(-0.132703 0.0138526 0)
(-0.128433 0.0107958 0)
(-0.11589 0.00907003 0)
(-0.0928638 0.011968 0)
(-0.0534722 0.0198304 0)
(-0.00366841 0.0157632 0)
(0.0448071 -0.0199408 0)
(0.0693928 -0.0664109 0)
(0.0400878 -0.116674 0)
(0.038797 -0.117301 0)
(7.07428e-05 0.103338 0)
(0.0121007 0.0931675 0)
(0.0033935 0.0813109 0)
(-0.00697235 0.076182 0)
(-0.00625728 0.0520277 0)
(0.0106307 0.00564993 0)
(0.00586373 -0.0301587 0)
(-0.0386818 -0.0425443 0)
(-0.0914368 -0.0332732 0)
(-0.125149 -0.0187976 0)
(-0.136914 -0.00362596 0)
(-0.139872 0.00862526 0)
(-0.142909 0.0140644 0)
(-0.143757 0.0123323 0)
(-0.137729 0.00621532 0)
(-0.123702 0.000682742 0)
(-0.101805 -0.00217615 0)
(-0.068025 -0.00285472 0)
(-0.022653 -0.0130939 0)
(0.0195689 -0.0403395 0)
(0.0528423 -0.0704834 0)
(0.0274673 -0.11012 0)
(0.0419937 -0.103918 0)
(0.0126504 0.0968229 0)
(0.0419155 0.0970245 0)
(0.0613406 0.0912069 0)
(0.0795998 0.0843399 0)
(0.104071 0.0562526 0)
(0.119367 0.0141227 0)
(0.0834021 -0.0133852 0)
(0.00403726 -0.0179943 0)
(-0.0696523 -0.00990494 0)
(-0.118928 -0.00541716 0)
(-0.14385 0.00150596 0)
(-0.15255 0.0116508 0)
(-0.156057 0.01688 0)
(-0.15565 0.0131613 0)
(-0.147131 0.00230319 0)
(-0.129829 -0.00801321 0)
(-0.105967 -0.0152122 0)
(-0.0751643 -0.0197866 0)
(-0.0392367 -0.0308071 0)
(-0.0101823 -0.0556535 0)
(0.022455 -0.0758076 0)
(0.0100333 -0.108929 0)
(0.035426 -0.0878157 0)
(0.0205495 0.069566 0)
(0.0841673 0.0648729 0)
(0.138455 0.0514295 0)
(0.175311 0.0429332 0)
(0.188443 0.0289813 0)
(0.157193 0.0193072 0)
(0.0751894 0.0232256 0)
(-0.0147992 0.0266641 0)
(-0.076747 0.0261638 0)
(-0.115754 0.018459 0)
(-0.140615 0.0129853 0)
(-0.156668 0.0136605 0)
(-0.166382 0.0139273 0)
(-0.168832 0.00766645 0)
(-0.159823 -0.00611646 0)
(-0.139007 -0.0189377 0)
(-0.111149 -0.0277219 0)
(-0.0786221 -0.0335652 0)
(-0.0450658 -0.0446287 0)
(-0.018393 -0.066743 0)
(0.00706292 -0.0820178 0)
(0.0110806 -0.111291 0)
(0.0303237 -0.073782 0)
(-0.0991793 0.0490182 0)
(-0.440882 0.065515 0)
(-0.626027 0.0102386 0)
(-0.530072 -0.0363456 0)
(-0.359079 -0.0580958 0)
(-0.084634 -0.0816974 0)
(0.176724 -0.0488872 0)
(0.249533 -0.00632762 0)
(0.149663 0.0188702 0)
(-0.412556 0.164326 0)
(-1.03975 0.173359 0)
(-1.48749 0.0826385 0)
(-1.57179 -0.012154 0)
(-1.20008 -0.0585304 0)
(-0.712009 -0.0533457 0)
(-0.534211 0.0320936 0)
(-0.500798 0.0493844 0)
(-0.33812 -0.0237142 0)
(-0.0780446 -0.0268676 0)
(-0.228078 0.17126 0)
(-0.513633 0.173008 0)
(-0.483148 0.0268034 0)
(-0.390912 -0.0880432 0)
(-0.229638 -0.144313 0)
(-0.00046129 -0.207204 0)
(0.169293 -0.132926 0)
(0.183428 0.0574964 0)
(-0.423734 0.270209 0)
(-1.19491 0.346198 0)
(-1.72445 0.23071 0)
(-1.98822 0.1246 0)
(-1.72827 -0.011786 0)
(-0.721331 -0.292292 0)
(-0.0478293 -0.124795 0)
(-0.23294 -0.0114663 0)
(-0.457752 -0.156379 0)
(-0.439415 -0.239346 0)
(-0.139749 -0.157777 0)
(-0.231701 0.29078 0)
(-0.379596 0.219374 0)
(-0.32001 -0.0176878 0)
(-0.244432 -0.144856 0)
(-0.128859 -0.213818 0)
(0.0108487 -0.289701 0)
(0.0254757 -0.110575 0)
(-0.270621 0.284951 0)
(-1.01522 0.529205 0)
(-1.72962 0.562078 0)
(-2.5136 0.472494 0)
(-2.81489 0.236657 0)
(-1.27887 -0.476544 0)
(0.168048 -1.02507 0)
(0.644157 -0.732773 0)
(1.94963 0.174396 0)
(2.64371 0.477331 0)
(-0.0557121 -0.0817632 0)
(-0.276223 -0.307376 0)
(-0.175655 0.384997 0)
(-0.194604 0.257387 0)
(-0.164567 -0.033781 0)
(-0.0739115 -0.183446 0)
(-0.0344388 -0.23623 0)
(-0.0519405 -0.286047 0)
(-0.26534 0.0519961 0)
(-0.740243 0.536809 0)
(-1.45221 0.80494 0)
(-2.21147 0.903283 0)
(-2.74018 0.625135 0)
(-1.59403 -0.2721 0)
(-0.196667 -1.14448 0)
(0.266711 -1.25985 0)
(0.480166 -1.07217 0)
(0.886959 -0.498444 0)
(1.84797 0.664583 0)
(0.155775 0.822828 0)
(-0.874637 -0.407198 0)
(-0.109948 0.436688 0)
(0.0477491 0.25866 0)
(0.0264078 -0.0371446 0)
(0.131941 -0.196798 0)
(0.0798325 -0.205307 0)
(-0.144496 -0.195702 0)
(-0.539515 0.244626 0)
(-1.07732 0.777463 0)
(-1.76342 1.0946 0)
(-2.27267 1.0806 0)
(-1.81495 0.253419 0)
(-0.580557 -0.790284 0)
(0.210189 -1.44478 0)
(0.305182 -1.3293 0)
(0.446804 -1.08343 0)
(0.501478 -0.65138 0)
(1.24165 0.669652 0)
(0.262031 1.52325 0)
(-0.285269 -0.565259 0)
(-0.0655329 0.417288 0)
(0.21151 0.235352 0)
(0.267506 -0.0538356 0)
(0.348475 -0.190429 0)
(0.202974 -0.118438 0)
(-0.207625 -0.0363345 0)
(-0.726693 0.45964 0)
(-1.28911 1.02524 0)
(-1.90663 1.32747 0)
(-1.93058 1.01909 0)
(-1.19545 0.0753189 0)
(-0.374819 -0.805159 0)
(0.305121 -1.61039 0)
(0.280411 -1.39291 0)
(0.336085 -1.12562 0)
(0.330777 -0.79065 0)
(0.815521 0.842839 0)
(-0.505962 1.49289 0)
(0.0185932 -0.718269 0)
(-0.0361434 0.362077 0)
(0.272743 0.177776 0)
(0.491484 -0.10559 0)
(0.510821 -0.175687 0)
(0.302363 0.0224977 0)
(-0.224595 0.171432 0)
(-0.801117 0.673746 0)
(-1.33029 1.27811 0)
(-1.79028 1.42167 0)
(-1.33072 0.769878 0)
(-0.666887 -0.339185 0)
(0.105951 -1.15351 0)
(0.300522 -1.66558 0)
(0.23154 -1.40503 0)
(0.204943 -1.15467 0)
(0.246144 -0.849318 0)
(0.463704 1.1898 0)
(-0.82216 1.37261 0)
(0.125418 -0.804528 0)
(0.0337167 0.262496 0)
(0.372021 0.0586816 0)
(0.634505 -0.192193 0)
(0.507646 -0.145032 0)
(0.308566 0.14002 0)
(-0.200329 0.379954 0)
(-0.738291 0.852209 0)
(-1.07109 1.47543 0)
(-1.37468 1.35213 0)
(-0.646826 0.464028 0)
(-0.224351 -0.663644 0)
(0.291104 -1.35039 0)
(0.281648 -1.64813 0)
(0.167189 -1.39046 0)
(0.0642853 -1.19807 0)
(0.241647 -0.807088 0)
(0.287845 1.59705 0)
(-0.807519 1.44524 0)
(0.197066 -0.901092 0)
(0.0105674 0.0194435 0)
(-0.0200999 0.025689 0)
(-0.0524665 0.0626264 0)
(-0.0811568 0.084435 0)
(-0.111035 0.0872791 0)
(-0.134537 0.0828492 0)
(-0.148567 0.0678401 0)
(-0.15162 0.0484794 0)
(-0.146648 0.034781 0)
(-0.142014 0.0242351 0)
(-0.141633 0.0231583 0)
(-0.149215 0.029317 0)
(-0.161895 0.0300416 0)
(-0.168006 0.0148911 0)
(-0.152695 -0.0169727 0)
(-0.129277 -0.0428634 0)
(-0.10153 -0.0599361 0)
(-0.0696911 -0.0673101 0)
(-0.0365503 -0.0745375 0)
(-0.00758658 -0.0889617 0)
(0.0193849 -0.100952 0)
(0.0397444 -0.120172 0)
(0.050898 -0.0958017 0)
(-0.577839 0.130736 0)
(-0.543063 0.125042 0)
(-0.546464 0.0764055 0)
(-0.525046 0.0588215 0)
(-0.517724 0.054971 0)
(-0.503298 0.0490629 0)
(-0.471907 0.0373411 0)
(-0.432053 0.0249289 0)
(-0.383962 0.0173117 0)
(-0.312934 0.0156108 0)
(-0.231341 0.0189583 0)
(-0.17687 0.0245941 0)
(-0.153353 0.0243589 0)
(-0.139269 0.004863 0)
(-0.133346 -0.0377634 0)
(-0.126095 -0.0637499 0)
(-0.107175 -0.0777748 0)
(-0.0789661 -0.079277 0)
(-0.0446827 -0.0831277 0)
(-0.0118924 -0.100414 0)
(0.0258573 -0.119338 0)
(0.048279 -0.131643 0)
(0.0669507 -0.125206 0)
(-0.386725 0.879453 0)
(-0.563052 0.188652 0)
(-0.954799 0.105642 0)
(-1.23353 0.121489 0)
(-1.36906 0.104526 0)
(-1.45289 0.0668592 0)
(-1.60323 0.0170092 0)
(-1.63798 -0.0523214 0)
(-1.54029 -0.141576 0)
(-1.18853 -0.171348 0)
(-0.894976 -0.125983 0)
(-0.707416 -0.060113 0)
(-0.659463 -0.0206726 0)
(-0.747371 0.0123245 0)
(-0.761943 0.0121071 0)
(-0.701183 -0.0351671 0)
(-0.621335 -0.085406 0)
(-0.528816 -0.122918 0)
(-0.414401 -0.147044 0)
(-0.315197 -0.159402 0)
(-0.242036 -0.162281 0)
(-0.180391 -0.151616 0)
(-0.139331 -0.12106 0)
(-0.284419 1.26997 0)
(-0.461211 0.634641 0)
(-0.8515 0.512351 0)
(-1.02379 0.373091 0)
(-1.1408 0.294071 0)
(-1.26292 0.269819 0)
(-1.43438 0.167063 0)
(-1.71171 -0.0395759 0)
(-2.11273 -0.264887 0)
(-2.47679 -0.417154 0)
(-2.60718 -0.341861 0)
(-2.53794 -0.131692 0)
(-2.38952 0.0649125 0)
(-2.09366 0.0657391 0)
(-1.76922 -0.185828 0)
(-1.56966 -0.328725 0)
(-1.40718 -0.35011 0)
(-1.25859 -0.322618 0)
(-1.18036 -0.281804 0)
(-1.33168 -0.254282 0)
(-1.12557 -0.232063 0)
(-0.684013 -0.208785 0)
(-0.383557 -0.101486 0)
(-0.201345 1.49746 0)
(-0.298293 0.929265 0)
(-0.596007 0.729294 0)
(-0.599166 0.484599 0)
(-0.588712 0.329546 0)
(-0.547752 0.334352 0)
(-0.510488 0.415141 0)
(-0.551442 0.473197 0)
(-0.734957 0.406916 0)
(-0.981569 0.116079 0)
(-1.21389 -0.296112 0)
(-1.39569 -0.465769 0)
(-1.53262 -0.316443 0)
(-1.56034 -0.279947 0)
(-1.58067 -0.417959 0)
(-1.70167 -0.412031 0)
(-1.8457 -0.328944 0)
(-2.15476 -0.179412 0)
(-2.23164 -0.160643 0)
(-1.96738 -0.434119 0)
(-1.64078 -0.781428 0)
(-1.2208 -0.829386 0)
(-0.717615 -0.805466 0)
(-0.101448 1.66767 0)
(-0.0758311 1.09504 0)
(-0.352867 0.769011 0)
(-0.240237 0.478272 0)
(-0.229213 0.286686 0)
(-0.206051 0.245787 0)
(-0.174501 0.275499 0)
(-0.142269 0.355799 0)
(-0.151757 0.397934 0)
(-0.285612 0.294207 0)
(-0.540627 0.145199 0)
(-0.854678 0.0938489 0)
(-1.1342 0.141969 0)
(-1.34684 0.121258 0)
(-1.69201 -0.0613094 0)
(-1.9307 -0.0503122 0)
(-1.82541 -0.0923094 0)
(-1.68076 -0.209513 0)
(-1.58205 -0.351212 0)
(-1.55997 -0.637487 0)
(-1.71073 -0.919116 0)
(-1.75756 -1.1013 0)
(-1.61089 -1.18373 0)
(0.0360376 1.64073 0)
(0.175957 1.31382 0)
(-0.064024 0.804371 0)
(0.01277 0.447525 0)
(-0.00704413 0.272875 0)
(-0.0288628 0.254379 0)
(-0.0605761 0.279524 0)
(-0.095958 0.323438 0)
(-0.0873899 0.378249 0)
(-0.117777 0.380168 0)
(-0.261032 0.331597 0)
(-0.477514 0.31055 0)
(-0.722417 0.326163 0)
(-0.972286 0.255419 0)
(-1.28767 0.020823 0)
(-1.67222 -0.152445 0)
(-1.8203 -0.235008 0)
(-1.63141 -0.332618 0)
(-1.47342 -0.390308 0)
(-1.40455 -0.477339 0)
(-1.49684 -0.679236 0)
(-1.71254 -0.95937 0)
(-1.9419 -1.2662 0)
(0.150125 1.37583 0)
(0.361334 1.38582 0)
(0.257561 0.89595 0)
(0.230974 0.48949 0)
(0.164763 0.311252 0)
(0.0866329 0.303121 0)
(0.0203069 0.348432 0)
(-0.0602854 0.383795 0)
(-0.10551 0.421537 0)
(-0.130049 0.456073 0)
(-0.19644 0.468997 0)
(-0.306025 0.486838 0)
(-0.433899 0.531452 0)
(-0.590289 0.553834 0)
(-0.822347 0.484181 0)
(-1.21326 0.275005 0)
(-1.62039 -0.087279 0)
(-1.71975 -0.491904 0)
(-1.55092 -0.61708 0)
(-1.39422 -0.585539 0)
(-1.28185 -0.550247 0)
(-1.33389 -0.64969 0)
(-1.57315 -0.948161 0)
(0.15305 1.03705 0)
(0.383536 1.26048 0)
(0.40902 0.921032 0)
(0.365649 0.569091 0)
(0.261929 0.398196 0)
(0.146829 0.38586 0)
(0.0622088 0.426283 0)
(-0.0225481 0.452346 0)
(-0.0888546 0.469441 0)
(-0.133499 0.502918 0)
(-0.17656 0.541934 0)
(-0.232219 0.579034 0)
(-0.289975 0.634453 0)
(-0.359764 0.701083 0)
(-0.473779 0.735888 0)
(-0.698226 0.631958 0)
(-1.08179 0.270131 0)
(-1.453 -0.298487 0)
(-1.55614 -0.760589 0)
(-1.45759 -0.810348 0)
(-1.30235 -0.721774 0)
(-1.17318 -0.614542 0)
(-1.21356 -0.614046 0)
(0.0539955 0.826947 0)
(0.258335 1.07645 0)
(0.362505 0.876734 0)
(0.356264 0.633538 0)
(0.262637 0.504468 0)
(0.154576 0.48586 0)
(0.0752341 0.507324 0)
(0.00472261 0.522269 0)
(-0.0553304 0.525003 0)
(-0.105583 0.544113 0)
(-0.141933 0.580577 0)
(-0.174346 0.620215 0)
(-0.204616 0.674272 0)
(-0.231146 0.752419 0)
(-0.26334 0.835958 0)
(-0.337999 0.844373 0)
(-0.543077 0.616313 0)
(-0.914641 0.11855 0)
(-1.28993 -0.512197 0)
(-1.46048 -0.894404 0)
(-1.40996 -0.920844 0)
(-1.25794 -0.797765 0)
(-1.10247 -0.612286 0)
(-0.0306442 0.761159 0)
(0.116533 0.908279 0)
(0.240922 0.808966 0)
(0.263101 0.673196 0)
(0.204193 0.591534 0)
(0.132305 0.568859 0)
(0.0758323 0.573866 0)
(0.0268442 0.581182 0)
(-0.0183775 0.579306 0)
(-0.0624704 0.587196 0)
(-0.0934434 0.611163 0)
(-0.114372 0.645225 0)
(-0.133101 0.694 0)
(-0.145257 0.765481 0)
(-0.144255 0.851606 0)
(-0.143508 0.911346 0)
(-0.206804 0.821174 0)
(-0.438178 0.465892 0)
(-0.833178 -0.0775207 0)
(-1.23501 -0.636783 0)
(-1.45375 -0.961929 0)
(-1.42407 -0.982619 0)
(-1.24805 -0.831195 0)
(-0.0460035 0.756284 0)
(0.0441115 0.783347 0)
(0.141543 0.745998 0)
(0.167446 0.686014 0)
(0.141468 0.640109 0)
(0.106133 0.61823 0)
(0.0739825 0.61547 0)
(0.0455363 0.619358 0)
(0.0163259 0.618659 0)
(-0.0157292 0.622128 0)
(-0.0404515 0.636154 0)
(-0.0564353 0.663582 0)
(-0.0693186 0.707199 0)
(-0.0769062 0.767072 0)
(-0.0698365 0.83593 0)
(-0.0464393 0.89688 0)
(-0.0362414 0.893371 0)
(-0.132486 0.714136 0)
(-0.414252 0.317558 0)
(-0.816741 -0.208132 0)
(-1.24227 -0.711065 0)
(-1.53893 -1.01383 0)
(-1.54808 -1.01477 0)
(-0.0258502 0.762271 0)
(0.0262928 0.709039 0)
(0.0841951 0.699995 0)
(0.105118 0.681263 0)
(0.10022 0.65709 0)
(0.0882702 0.639901 0)
(0.0734283 0.636057 0)
(0.060088 0.639538 0)
(0.0446995 0.642007 0)
(0.0259361 0.645588 0)
(0.00868302 0.654963 0)
(-0.00454363 0.677246 0)
(-0.0140981 0.715943 0)
(-0.0186246 0.766217 0)
(-0.0126714 0.818361 0)
(0.00868769 0.86393 0)
(0.038271 0.888789 0)
(0.023736 0.839367 0)
(-0.143411 0.612099 0)
(-0.473681 0.197735 0)
(-0.825001 -0.257838 0)
(-1.20273 -0.688373 0)
(-1.6233 -1.00309 0)
(-0.00634709 0.758452 0)
(0.0250669 0.668944 0)
(0.0563841 0.670856 0)
(0.0736884 0.670446 0)
(0.0789159 0.657909 0)
(0.0787117 0.646315 0)
(0.0742784 0.643948 0)
(0.0704948 0.648064 0)
(0.065232 0.653307 0)
(0.0574725 0.658925 0)
(0.0480057 0.667971 0)
(0.0387014 0.687493 0)
(0.0325465 0.721182 0)
(0.0315855 0.764031 0)
(0.0376537 0.805597 0)
(0.0523366 0.838746 0)
(0.0750028 0.866571 0)
(0.0872854 0.889204 0)
(0.00409927 0.821163 0)
(-0.289074 0.479425 0)
(-0.595886 0.0254698 0)
(-0.822375 -0.210209 0)
(-1.25952 -0.483835 0)
(0.0028969 0.746154 0)
(0.0248839 0.644201 0)
(0.0442288 0.651425 0)
(0.0597442 0.658458 0)
(0.0687801 0.652269 0)
(0.0740562 0.645306 0)
(0.0757202 0.6446 0)
(0.0776539 0.649114 0)
(0.0789797 0.655897 0)
(0.0788611 0.663728 0)
(0.0764517 0.67454 0)
(0.0727839 0.693321 0)
(0.0713123 0.722669 0)
(0.0746418 0.759416 0)
(0.0830503 0.79512 0)
(0.0949986 0.822882 0)
(0.109084 0.850218 0)
(0.121052 0.907972 0)
(0.0984363 0.968334 0)
(-0.124141 0.774877 0)
(-0.417361 0.280544 0)
(-0.593832 0.0479865 0)
(-0.916974 0.0138153 0)
(0.00622512 0.731082 0)
(0.0241325 0.626361 0)
(0.0388672 0.63579 0)
(0.0535234 0.64612 0)
(0.0639673 0.643758 0)
(0.0720943 0.640097 0)
(0.077568 0.640691 0)
(0.0830779 0.645283 0)
(0.0885326 0.65265 0)
(0.0934187 0.662021 0)
(0.0968044 0.674598 0)
(0.0993053 0.693151 0)
(0.103515 0.719148 0)
(0.11184 0.751024 0)
(0.124251 0.783555 0)
(0.137815 0.810911 0)
(0.150098 0.839638 0)
(0.15935 0.910222 0)
(0.170836 1.0499 0)
(0.0512392 1.02936 0)
(-0.25717 0.502499 0)
(-0.437283 0.220078 0)
(-0.521758 0.359428 0)
(0.00780522 0.715411 0)
(0.0235042 0.611751 0)
(0.0364586 0.621481 0)
(0.0506557 0.633562 0)
(0.0619595 0.633588 0)
(0.0719365 0.632137 0)
(0.0800966 0.633715 0)
(0.0881853 0.638327 0)
(0.0964562 0.645729 0)
(0.104806 0.655703 0)
(0.112787 0.66896 0)
(0.120951 0.686801 0)
(0.130952 0.709983 0)
(0.144544 0.737946 0)
(0.161851 0.768284 0)
(0.180071 0.797051 0)
(0.196655 0.82842 0)
(0.210985 0.898607 0)
(0.242239 1.0677 0)
(0.247517 1.20797 0)
(-0.0299267 0.763531 0)
(-0.339037 0.287478 0)
(-0.405856 0.380732 0)
(0.00888471 0.699243 0)
(0.0232539 0.598546 0)
(0.0356577 0.607765 0)
(0.0495713 0.620814 0)
(0.0616813 0.622251 0)
(0.0730745 0.622188 0)
(0.0833606 0.624439 0)
(0.0936093 0.629041 0)
(0.104173 0.636125 0)
(0.115289 0.645839 0)
(0.127005 0.658614 0)
(0.139924 0.675017 0)
(0.155121 0.69543 0)
(0.173737 0.719859 0)
(0.196217 0.747704 0)
(0.220991 0.777116 0)
(0.246235 0.810086 0)
(0.27339 0.871861 0)
(0.325838 1.02573 0)
(0.426667 1.24935 0)
(0.354385 1.11067 0)
(0.00575147 0.563092 0)
(-0.219629 0.33002 0)
(0.00950518 0.68268 0)
(0.0232651 0.585818 0)
(0.035712 0.594277 0)
(0.0495381 0.607768 0)
(0.0624287 0.609919 0)
(0.0749854 0.61061 0)
(0.0870377 0.613178 0)
(0.0992242 0.617619 0)
(0.111896 0.624124 0)
(0.125481 0.632944 0)
(0.140328 0.644388 0)
(0.157082 0.658715 0)
(0.176574 0.676135 0)
(0.199631 0.696875 0)
(0.22702 0.721155 0)
(0.258704 0.7486 0)
(0.294263 0.7798 0)
(0.335857 0.827864 0)
(0.406263 0.937317 0)
(0.548803 1.14043 0)
(0.684016 1.23663 0)
(0.556914 0.887722 0)
(0.304061 0.502604 0)
(0.00970509 0.665931 0)
(0.0233757 0.573074 0)
(0.0360621 0.58071 0)
(0.0500383 0.594292 0)
(0.0636412 0.596687 0)
(0.0771758 0.597649 0)
(0.0906778 0.600174 0)
(0.104565 0.60421 0)
(0.119156 0.609891 0)
(0.134932 0.617405 0)
(0.152376 0.626995 0)
(0.172124 0.638781 0)
(0.194926 0.652895 0)
(0.221564 0.669522 0)
(0.252999 0.688999 0)
(0.290226 0.711419 0)
(0.334208 0.736708 0)
(0.386802 0.768913 0)
(0.464408 0.829146 0)
(0.606474 0.949129 0)
(0.82588 1.09039 0)
(0.968416 1.00328 0)
(0.942143 0.688088 0)
(0.00967185 0.649113 0)
(0.0234966 0.560131 0)
(0.0364024 0.566885 0)
(0.0507069 0.580324 0)
(0.064919 0.582673 0)
(0.0792649 0.583556 0)
(0.0939056 0.585731 0)
(0.109172 0.589106 0)
(0.125357 0.593719 0)
(0.142926 0.599674 0)
(0.162378 0.607125 0)
(0.184313 0.616103 0)
(0.209435 0.626658 0)
(0.238551 0.638813 0)
(0.272664 0.652669 0)
(0.313086 0.668111 0)
(0.361436 0.684695 0)
(0.419343 0.702026 0)
(0.495249 0.725265 0)
(0.611644 0.765217 0)
(0.807615 0.831469 0)
(1.03556 0.82486 0)
(1.18772 0.658156 0)
(0.00956734 0.632281 0)
(0.0235782 0.546995 0)
(0.0366203 0.552756 0)
(0.0513101 0.565884 0)
(0.0660011 0.568017 0)
(0.0809849 0.568586 0)
(0.0964674 0.570182 0)
(0.112745 0.57269 0)
(0.1301 0.576045 0)
(0.148961 0.580294 0)
(0.169788 0.585483 0)
(0.193127 0.591571 0)
(0.219615 0.598491 0)
(0.250026 0.606099 0)
(0.285284 0.614204 0)
(0.326574 0.622343 0)
(0.375414 0.629744 0)
(0.433283 0.634793 0)
(0.503517 0.636129 0)
(0.5938 0.63142 0)
(0.726532 0.62433 0)
(0.90782 0.589555 0)
(1.071 0.468346 0)
(0.00945354 0.615481 0)
(0.0235804 0.533729 0)
(0.0366781 0.538372 0)
(0.0517002 0.551053 0)
(0.0667223 0.552871 0)
(0.0821583 0.552978 0)
(0.0982067 0.553856 0)
(0.11514 0.555363 0)
(0.133232 0.557363 0)
(0.152867 0.559845 0)
(0.174454 0.562771 0)
(0.198475 0.566035 0)
(0.225472 0.569453 0)
(0.256118 0.572755 0)
(0.291176 0.575541 0)
(0.331565 0.577138 0)
(0.378372 0.576539 0)
(0.432722 0.5721 0)
(0.495853 0.561324 0)
(0.56905 0.539391 0)
(0.656477 0.502363 0)
(0.767581 0.444234 0)
(0.876007 0.338614 0)
(0.00933174 0.598769 0)
(0.0234744 0.520398 0)
(0.0365513 0.523833 0)
(0.0517863 0.535957 0)
(0.0669834 0.537402 0)
(0.0826814 0.536963 0)
(0.0990404 0.537058 0)
(0.116315 0.537508 0)
(0.134757 0.538137 0)
(0.154704 0.538876 0)
(0.176515 0.539634 0)
(0.200595 0.54025 0)
(0.227391 0.540459 0)
(0.25743 0.539915 0)
(0.291292 0.5381 0)
(0.329615 0.534284 0)
(0.373065 0.527385 0)
(0.42226 0.515912 0)
(0.477667 0.497725 0)
(0.538996 0.469369 0)
(0.604395 0.426215 0)
(0.674824 0.366131 0)
(0.73987 0.278059 0)
(0.00919127 0.582225 0)
(0.0232442 0.507075 0)
(0.0362223 0.509264 0)
(0.051521 0.520746 0)
(0.0667356 0.521788 0)
(0.0825074 0.520767 0)
(0.0989447 0.520059 0)
(0.116286 0.519463 0)
(0.134751 0.518763 0)
(0.154628 0.517854 0)
(0.176226 0.516608 0)
(0.19987 0.51483 0)
(0.225913 0.512213 0)
(0.254734 0.508373 0)
(0.286738 0.502757 0)
(0.322313 0.494651 0)
(0.361798 0.483044 0)
(0.405367 0.466613 0)
(0.452996 0.443661 0)
(0.504041 0.411966 0)
(0.55623 0.368487 0)
(0.607325 0.312037 0)
(0.650148 0.237348 0)
(0.00902684 0.56593 0)
(0.022884 0.493841 0)
(0.0356884 0.494798 0)
(0.0508917 0.505576 0)
(0.0659716 0.506197 0)
(0.0816348 0.504597 0)
(0.0979421 0.503102 0)
(0.115108 0.501509 0)
(0.133322 0.499564 0)
(0.152823 0.497151 0)
(0.173866 0.49411 0)
(0.196701 0.490232 0)
(0.221592 0.485206 0)
(0.248792 0.478634 0)
(0.278548 0.469991 0)
(0.311055 0.458612 0)
(0.346411 0.443636 0)
(0.384506 0.42396 0)
(0.424969 0.398282 0)
(0.466982 0.365106 0)
(0.508654 0.322723 0)
(0.547957 0.270664 0)
(0.579307 0.206327 0)
(0.00883643 0.549964 0)
(0.0223985 0.480777 0)
(0.0349626 0.480558 0)
(0.0499138 0.490602 0)
(0.0647155 0.490793 0)
(0.0801029 0.48864 0)
(0.096094 0.486401 0)
(0.112875 0.483883 0)
(0.130611 0.480807 0)
(0.149493 0.477054 0)
(0.16972 0.472448 0)
(0.19148 0.466781 0)
(0.214954 0.459755 0)
(0.240294 0.45099 0)
(0.267625 0.440012 0)
(0.297 0.42624 0)
(0.328357 0.408977 0)
(0.361437 0.387369 0)
(0.395715 0.360471 0)
(0.430326 0.327304 0)
(0.463707 0.286944 0)
(0.494435 0.239428 0)
(0.518479 0.183503 0)
(0.00861785 0.534402 0)
(0.0218033 0.467962 0)
(0.0340623 0.466651 0)
(0.0486234 0.475965 0)
(0.0630124 0.475731 0)
(0.0779789 0.473061 0)
(0.0934921 0.470142 0)
(0.109712 0.466782 0)
(0.126784 0.462707 0)
(0.144855 0.457784 0)
(0.164074 0.451846 0)
(0.184577 0.444691 0)
(0.206474 0.436046 0)
(0.229843 0.42557 0)
(0.254718 0.412851 0)
(0.281058 0.397404 0)
(0.308708 0.378683 0)
(0.337345 0.356065 0)
(0.36642 0.328894 0)
(0.395128 0.296557 0)
(0.422202 0.258571 0)
(0.446601 0.21518 0)
(0.46543 0.165798 0)
(0.00837432 0.519301 0)
(0.0211262 0.455481 0)
(0.0329967 0.453171 0)
(0.0470647 0.461793 0)
(0.0609187 0.461151 0)
(0.0753441 0.458008 0)
(0.0902449 0.454482 0)
(0.105764 0.450377 0)
(0.122024 0.445433 0)
(0.139139 0.439512 0)
(0.157213 0.432463 0)
(0.17634 0.424096 0)
(0.196576 0.41417 0)
(0.217946 0.402393 0)
(0.240421 0.388416 0)
(0.263907 0.371852 0)
(0.288198 0.35228 0)
(0.312959 0.329262 0)
(0.337674 0.30236 0)
(0.361643 0.271203 0)
(0.383866 0.235558 0)
(0.403573 0.195731 0)
(0.418651 0.151524 0)
(0.00812558 0.504688 0)
(0.0204084 0.443432 0)
(0.0317613 0.440191 0)
(0.0452763 0.448186 0)
(0.0584917 0.447158 0)
(0.0722826 0.4436 0)
(0.0864652 0.439545 0)
(0.101175 0.434796 0)
(0.116516 0.429115 0)
(0.13257 0.422363 0)
(0.14941 0.414405 0)
(0.167091 0.405071 0)
(0.185636 0.394155 0)
(0.20503 0.381413 0)
(0.225211 0.366562 0)
(0.246053 0.349297 0)
(0.267334 0.329303 0)
(0.28873 0.306281 0)
(0.309785 0.279953 0)
(0.329914 0.250107 0)
(0.348337 0.216653 0)
(0.364493 0.179902 0)
(0.376808 0.13988 0)
(0.00791533 0.490543 0)
(0.0197004 0.431954 0)
(0.0303406 0.427784 0)
(0.0432846 0.43522 0)
(0.0557785 0.433833 0)
(0.0688694 0.429924 0)
(0.0822539 0.42542 0)
(0.0960786 0.42013 0)
(0.110431 0.413838 0)
(0.125363 0.406409 0)
(0.140921 0.397726 0)
(0.157135 0.38764 0)
(0.174002 0.37598 0)
(0.191485 0.362547 0)
(0.209504 0.347117 0)
(0.227921 0.329457 0)
(0.246518 0.309337 0)
(0.265 0.286559 0)
(0.282977 0.260961 0)
(0.299972 0.232441 0)
(0.315379 0.200981 0)
(0.328784 0.166859 0)
(0.338995 0.130225 0)
(0.00780338 0.476795 0)
(0.0190457 0.421226 0)
(0.0287295 0.416033 0)
(0.0411072 0.42295 0)
(0.0528094 0.421234 0)
(0.0651578 0.417044 0)
(0.0776857 0.412167 0)
(0.0905791 0.406436 0)
(0.103907 0.399649 0)
(0.117694 0.391684 0)
(0.131966 0.382437 0)
(0.146735 0.371785 0)
(0.161982 0.359586 0)
(0.177657 0.345679 0)
(0.193673 0.329895 0)
(0.209893 0.312058 0)
(0.226117 0.292008 0)
(0.242086 0.26962 0)
(0.257476 0.244811 0)
(0.27191 0.217552 0)
(0.284919 0.187863 0)
(0.296189 0.155971 0)
(0.304819 0.122079 0)
(0.00782892 0.46334 0)
(0.0184527 0.411412 0)
(0.0269646 0.40505 0)
(0.0387592 0.411422 0)
(0.0495977 0.40941 0)
(0.0611724 0.405007 0)
(0.0727955 0.399826 0)
(0.0847322 0.39374 0)
(0.0970248 0.386564 0)
(0.109671 0.378182 0)
(0.122687 0.368509 0)
(0.136069 0.357445 0)
(0.149788 0.344871 0)
(0.163788 0.330663 0)
(0.177983 0.314691 0)
(0.192245 0.296831 0)
(0.206398 0.276975 0)
(0.220221 0.255046 0)
(0.233457 0.231018 0)
(0.245815 0.204905 0)
(0.256944 0.176748 0)
(0.266606 0.146723 0)
(0.274133 0.115029 0)
(0.00797296 0.450099 0)
(0.0178833 0.402594 0)
(0.0251082 0.394968 0)
(0.0362427 0.400686 0)
(0.0461386 0.398407 0)
(0.0569021 0.393849 0)
(0.0675687 0.388422 0)
(0.0785289 0.382058 0)
(0.0897771 0.374575 0)
(0.101294 0.365873 0)
(0.113092 0.355885 0)
(0.125155 0.344528 0)
(0.137447 0.331706 0)
(0.149911 0.317324 0)
(0.162466 0.301286 0)
(0.174996 0.283505 0)
(0.187352 0.26391 0)
(0.199353 0.242458 0)
(0.210799 0.219152 0)
(0.22148 0.194033 0)
(0.231148 0.167155 0)
(0.239631 0.138642 0)
(0.246456 0.108652 0)
(0.00816925 0.437064 0)
(0.0172794 0.394786 0)
(0.0231909 0.385919 0)
(0.0335361 0.390823 0)
(0.0424037 0.388291 0)
(0.0522984 0.383619 0)
(0.061944 0.377994 0)
(0.0718942 0.371408 0)
(0.0820699 0.363681 0)
(0.0924486 0.354732 0)
(0.103045 0.344511 0)
(0.113829 0.33295 0)
(0.124763 0.319974 0)
(0.135793 0.30551 0)
(0.146841 0.289486 0)
(0.157808 0.271843 0)
(0.168568 0.252535 0)
(0.178977 0.231537 0)
(0.188886 0.208864 0)
(0.198149 0.184568 0)
(0.206614 0.158704 0)
(0.214156 0.131358 0)
(0.220462 0.102627 0)
(0.00834759 0.424289 0)
(0.0165862 0.387974 0)
(0.0211974 0.378022 0)
(0.0306086 0.381941 0)
(0.0383506 0.379149 0)
(0.0472967 0.374393 0)
(0.0558383 0.368607 0)
(0.0647209 0.361838 0)
(0.0737648 0.353911 0)
(0.0829633 0.344768 0)
(0.0923308 0.334378 0)
(0.101826 0.32268 0)
(0.111412 0.309618 0)
(0.121037 0.295134 0)
(0.130629 0.279176 0)
(0.140102 0.2617 0)
(0.149352 0.242675 0)
(0.158267 0.222089 0)
(0.166736 0.199954 0)
(0.174663 0.17632 0)
(0.181962 0.15123 0)
(0.188545 0.124751 0)
(0.194195 0.0969203 0)
(0.00845206 0.411889 0)
(0.0157432 0.382125 0)
(0.019101 0.371372 0)
(0.0274457 0.374155 0)
(0.0339555 0.371088 0)
(0.0418628 0.366268 0)
(0.0492045 0.360346 0)
(0.056947 0.353426 0)
(0.0647783 0.345334 0)
(0.072729 0.336046 0)
(0.0808057 0.325537 0)
(0.0889581 0.313757 0)
(0.0971513 0.300661 0)
(0.105336 0.286203 0)
(0.113447 0.270344 0)
(0.121408 0.253048 0)
(0.129134 0.234299 0)
(0.136537 0.214085 0)
(0.143536 0.192414 0)
(0.150061 0.169322 0)
(0.156061 0.144841 0)
(0.161466 0.119018 0)
(0.166114 0.0918554 0)
(0.00842724 0.400039 0)
(0.0146788 0.37716 0)
(0.0168851 0.366019 0)
(0.0240631 0.367551 0)
(0.0292466 0.364208 0)
(0.0360366 0.359327 0)
(0.0420938 0.353288 0)
(0.0486321 0.346244 0)
(0.0551743 0.338021 0)
(0.0618134 0.328634 0)
(0.0685353 0.318051 0)
(0.0752848 0.306236 0)
(0.082031 0.29315 0)
(0.0887279 0.278755 0)
(0.0953118 0.263021 0)
(0.101721 0.245921 0)
(0.107885 0.227445 0)
(0.11373 0.207583 0)
(0.119198 0.186335 0)
(0.124225 0.163718 0)
(0.128779 0.139756 0)
(0.132784 0.114476 0)
(0.136132 0.0878695 0)
(0.00822667 0.38899 0)
(0.0133558 0.373062 0)
(0.014562 0.361969 0)
(0.0205042 0.362184 0)
(0.024313 0.358594 0)
(0.02994 0.353633 0)
(0.0346687 0.347496 0)
(0.0399713 0.340352 0)
(0.0451841 0.332036 0)
(0.0504849 0.322594 0)
(0.055824 0.31198 0)
(0.0611514 0.300171 0)
(0.0664361 0.287134 0)
(0.0716393 0.272833 0)
(0.0767021 0.257251 0)
(0.0815722 0.24037 0)
(0.0861928 0.222175 0)
(0.0905013 0.202658 0)
(0.0944507 0.181812 0)
(0.0979775 0.15964 0)
(0.101065 0.136152 0)
(0.103633 0.111358 0)
(0.105628 0.0852769 0)
(0.00771785 0.378819 0)
(0.0116513 0.369707 0)
(0.0120979 0.359187 0)
(0.016762 0.35806 0)
(0.0192385 0.354275 0)
(0.0236863 0.349186 0)
(0.0271 0.342972 0)
(0.0311763 0.335739 0)
(0.0350688 0.327366 0)
(0.0390557 0.317899 0)
(0.043038 0.307289 0)
(0.0469842 0.295514 0)
(0.050863 0.282554 0)
(0.0546427 0.268377 0)
(0.0582736 0.252966 0)
(0.0617079 0.236315 0)
(0.0648957 0.218397 0)
(0.0677934 0.19921 0)
(0.0703558 0.178738 0)
(0.0725215 0.156987 0)
(0.0742894 0.133949 0)
(0.0755872 0.109606 0)
(0.0763936 0.0840248 0)
(0.0071844 0.370667 0)
(0.01002 0.367462 0)
(0.0098055 0.357526 0)
(0.0132279 0.355228 0)
(0.0145202 0.351329 0)
(0.0178982 0.346117 0)
(0.0201194 0.339852 0)
(0.0230914 0.332563 0)
(0.0257951 0.324173 0)
(0.0286083 0.314712 0)
(0.0313812 0.304138 0)
(0.034105 0.292425 0)
(0.0367492 0.27956 0)
(0.0392815 0.265519 0)
(0.0416606 0.250285 0)
(0.04384 0.233855 0)
(0.0457742 0.216202 0)